[Molden Format]
[Title]
 Molden file created by orca_2mkl for BaseName=mol

[Atoms] AU
K    1  19          0.0000000000         0.0000000000         0.0000000000 
[GTO]
  1 0
s  11 1.0 
  2022075.1391000000         0.3989503494
   303044.6556800000         0.7462568915
    69013.9384900000         1.2921884748
    19559.2446150000         2.1138494645
     6383.8934901000         3.2999400646
     2305.3502858000         4.9104261263
      899.1441810100         6.8597976051
      372.5950013300         8.6342254164
      161.9763524700         9.0343768028
       73.0855538530         6.6696444652
       33.5956447620         2.5302430832
s   4 1.0 
      685.4985536500         0.8519191883
      211.6616337300         3.3804708949
       80.8514051310         7.1368795256
       35.1086672360         6.0679879895
s   1 1.0 
       14.4094372830         5.2710284227
s   1 1.0 
        6.8697147262         3.0242251401
s   1 1.0 
        3.2121883687         1.7100580217
s   1 1.0 
        1.2610484365         0.8481231511
s   1 1.0 
        0.6143894630         0.4945872441
s   1 1.0 
        0.2726437097         0.2689098460
s   1 1.0 
        0.0771730052         0.1043540122
s   1 1.0 
        0.0409183976         0.0648409032
s   1 1.0 
        0.0170557624         0.0336367049
p   9 1.0 
     3469.6649718000         8.1056508641
      822.0235610700        11.7011998812
      266.5840663600        15.6894866542
      101.2804816100        18.6978866664
       42.4294907610        18.9328111872
       18.9120839120        14.8543443237
        8.7017779030         8.1491338246
        4.0854567599         2.4853308185
        1.8667286060         0.2427816751
p   5 1.0 
       27.5446390570        -0.3645431557
        9.2098893609        -0.4264408152
        1.7232877425         0.6007924160
        0.7796930373         0.4865417490
        0.3437904786         0.1577041314
p   1 1.0 
        0.1434668192         0.1258575940
p   1 1.0 
        0.0680000000         0.0494966982
p   1 1.0 
        0.0320000000         0.0192920137
p   1 1.0 
        0.0153000000         0.0076701592
d   1 1.0 
        1.7000000000         7.2153216467
d   1 1.0 
        0.5100000000         0.8774409353
d   1 1.0 
        0.1800000000         0.1418067708
d   1 1.0 
        0.0540000000         0.0172448398
f   1 1.0 
        0.2670000000         0.2921799546

[5D]
[9G]
[MO]
 Sym=     1a
 Ene= -1.33534043699517E+02
 Spin= Alpha
 Occup= 1.000000
  1       0.972029379157
  2      -0.000204311261
  3       0.045696743712
  4      -0.002603201665
  5       0.001970848143
  6      -0.000929648993
  7       0.000525415542
  8      -0.000236252971
  9       0.000116289754
 10      -0.000081444112
 11       0.000019538209
 12      -0.000000000000
 13       0.000000000000
 14       0.000000000000
 15       0.000000000000
 16       0.000000000000
 17      -0.000000000000
 18      -0.000000000000
 19      -0.000000000000
 20       0.000000000000
 21      -0.000000000000
 22       0.000000000000
 23      -0.000000000000
 24       0.000000000000
 25      -0.000000000000
 26       0.000000000000
 27      -0.000000000000
 28      -0.000000000000
 29      -0.000000000000
 30       0.000000000000
 31       0.000000000000
 32      -0.000000000000
 33      -0.000000000000
 34      -0.000000000000
 35      -0.000000000000
 36      -0.000000000000
 37       0.000000000000
 38      -0.000000000000
 39       0.000000000000
 40       0.000000000000
 41       0.000000000000
 42      -0.000000000000
 43       0.000000000000
 44      -0.000000000000
 45       0.000000000000
 46       0.000000000000
 47       0.000000000000
 48      -0.000000000000
 49       0.000000000000
 50      -0.000000000000
 51       0.000000000000
 52      -0.000000000000
 53      -0.000000000000
 54      -0.000000000000
 55       0.000000000000
 56       0.000000000000
 Sym=     1a
 Ene= -1.44912264205579E+01
 Spin= Alpha
 Occup= 1.000000
  1       0.282213969016
  2       0.169202512114
  3      -0.103002198700
  4      -0.539483461845
  5      -0.459392007252
  6      -0.063357858574
  7       0.007971599363
  8      -0.003611088600
  9       0.001324421368
 10      -0.000914990611
 11       0.000217114766
 12      -0.000000000000
 13       0.000000000000
 14      -0.000000000000
 15      -0.000000000000
 16       0.000000000000
 17      -0.000000000000
 18       0.000000000000
 19      -0.000000000000
 20       0.000000000000
 21      -0.000000000000
 22       0.000000000000
 23      -0.000000000000
 24      -0.000000000000
 25       0.000000000000
 26       0.000000000000
 27       0.000000000000
 28      -0.000000000000
 29       0.000000000000
 30       0.000000000000
 31       0.000000000000
 32       0.000000000000
 33      -0.000000000000
 34       0.000000000000
 35      -0.000000000000
 36      -0.000000000000
 37      -0.000000000000
 38       0.000000000000
 39      -0.000000000000
 40       0.000000000000
 41       0.000000000000
 42       0.000000000000
 43      -0.000000000000
 44       0.000000000000
 45      -0.000000000000
 46      -0.000000000000
 47       0.000000000000
 48       0.000000000000
 49      -0.000000000000
 50       0.000000000000
 51       0.000000000000
 52      -0.000000000000
 53      -0.000000000000
 54       0.000000000000
 55      -0.000000000000
 56       0.000000000000
 Sym=     1a
 Ene= -1.15198101884592E+01
 Spin= Alpha
 Occup= 1.000000
  1       0.000000000000
  2       0.000000000000
  3       0.000000000000
  4       0.000000000000
  5       0.000000000000
  6       0.000000000000
  7       0.000000000000
  8       0.000000000000
  9       0.000000000000
 10       0.000000000000
 11       0.000000000000
 12      -0.999209295001
 13       0.000000000000
 14      -0.000000000000
 15      -0.002616758125
 16       0.000000000000
 17       0.000000000000
 18       0.000430598691
 19       0.000000000000
 20      -0.000000000000
 21      -0.000189177356
 22       0.000000000000
 23       0.000000000000
 24       0.000078501424
 25      -0.000000000000
 26      -0.000000000000
 27      -0.000019296596
 28       0.000000000000
 29       0.000000000000
 30       0.000000000000
 31      -0.000000000000
 32      -0.000000000000
 33      -0.000000000000
 34      -0.000000000000
 35      -0.000000000000
 36       0.000000000000
 37       0.000000000000
 38       0.000000000000
 39       0.000000000000
 40       0.000000000000
 41       0.000000000000
 42       0.000000000000
 43      -0.000000000000
 44      -0.000000000000
 45      -0.000000000000
 46       0.000000000000
 47       0.000000000000
 48      -0.000000000000
 49       0.000000000000
 50      -0.000000000000
 51      -0.000000000000
 52       0.000000000000
 53      -0.000000000000
 54       0.000000000000
 55       0.000000000000
 56       0.000000000000
 Sym=     1a
 Ene= -1.15198101884592E+01
 Spin= Alpha
 Occup= 1.000000
  1       0.000000000000
  2       0.000000000000
  3       0.000000000000
  4       0.000000000000
  5       0.000000000000
  6       0.000000000000
  7       0.000000000000
  8       0.000000000000
  9       0.000000000000
 10       0.000000000000
 11       0.000000000000
 12       0.000000000000
 13      -0.999209295001
 14       0.000000000000
 15      -0.000000000000
 16      -0.002616758125
 17      -0.000000000000
 18      -0.000000000000
 19       0.000430598691
 20       0.000000000000
 21       0.000000000000
 22      -0.000189177356
 23      -0.000000000000
 24       0.000000000000
 25       0.000078501424
 26       0.000000000000
 27       0.000000000000
 28      -0.000019296596
 29      -0.000000000000
 30       0.000000000000
 31      -0.000000000000
 32       0.000000000000
 33       0.000000000000
 34       0.000000000000
 35       0.000000000000
 36      -0.000000000000
 37      -0.000000000000
 38      -0.000000000000
 39       0.000000000000
 40      -0.000000000000
 41       0.000000000000
 42      -0.000000000000
 43      -0.000000000000
 44       0.000000000000
 45      -0.000000000000
 46       0.000000000000
 47       0.000000000000
 48       0.000000000000
 49      -0.000000000000
 50      -0.000000000000
 51      -0.000000000000
 52       0.000000000000
 53      -0.000000000000
 54      -0.000000000000
 55       0.000000000000
 56       0.000000000000
 Sym=     1a
 Ene= -1.15198101884592E+01
 Spin= Alpha
 Occup= 1.000000
  1       0.000000000000
  2       0.000000000000
  3       0.000000000000
  4       0.000000000000
  5       0.000000000000
  6       0.000000000000
  7       0.000000000000
  8       0.000000000000
  9       0.000000000000
 10       0.000000000000
 11       0.000000000000
 12       0.000000000000
 13      -0.000000000000
 14       0.999209295001
 15      -0.000000000000
 16       0.000000000000
 17       0.002616758125
 18       0.000000000000
 19      -0.000000000000
 20      -0.000430598691
 21      -0.000000000000
 22       0.000000000000
 23       0.000189177356
 24       0.000000000000
 25      -0.000000000000
 26      -0.000078501424
 27       0.000000000000
 28       0.000000000000
 29       0.000019296596
 30      -0.000000000000
 31      -0.000000000000
 32       0.000000000000
 33       0.000000000000
 34      -0.000000000000
 35       0.000000000000
 36       0.000000000000
 37      -0.000000000000
 38      -0.000000000000
 39       0.000000000000
 40      -0.000000000000
 41      -0.000000000000
 42       0.000000000000
 43       0.000000000000
 44      -0.000000000000
 45       0.000000000000
 46       0.000000000000
 47       0.000000000000
 48       0.000000000000
 49       0.000000000000
 50       0.000000000000
 51       0.000000000000
 52       0.000000000000
 53       0.000000000000
 54      -0.000000000000
 55       0.000000000000
 56       0.000000000000
 Sym=     1a
 Ene= -1.75116603529932E+00
 Spin= Alpha
 Occup= 1.000000
  1      -0.092794573187
  2      -0.064397767723
  3       0.038155429007
  4       0.280999524620
  5       0.386875650857
  6      -0.164542633950
  7      -0.676267312292
  8      -0.386795016737
  9      -0.018479003328
 10       0.005537633520
 11      -0.000843799189
 12       0.000000000000
 13       0.000000000000
 14       0.000000000000
 15      -0.000000000000
 16      -0.000000000000
 17      -0.000000000000
 18       0.000000000000
 19      -0.000000000000
 20       0.000000000000
 21      -0.000000000000
 22      -0.000000000000
 23       0.000000000000
 24       0.000000000000
 25      -0.000000000000
 26      -0.000000000000
 27      -0.000000000000
 28       0.000000000000
 29       0.000000000000
 30      -0.000000000000
 31      -0.000000000000
 32      -0.000000000000
 33       0.000000000000
 34      -0.000000000000
 35       0.000000000000
 36       0.000000000000
 37       0.000000000000
 38      -0.000000000000
 39      -0.000000000000
 40      -0.000000000000
 41      -0.000000000000
 42      -0.000000000000
 43       0.000000000000
 44      -0.000000000000
 45       0.000000000000
 46       0.000000000000
 47      -0.000000000000
 48      -0.000000000000
 49       0.000000000000
 50       0.000000000000
 51      -0.000000000000
 52       0.000000000000
 53       0.000000000000
 54       0.000000000000
 55       0.000000000000
 56       0.000000000000
 Sym=     1a
 Ene= -9.55127431286548E-01
 Spin= Alpha
 Occup= 1.000000
  1       0.000000000000
  2       0.000000000000
  3       0.000000000000
  4       0.000000000000
  5       0.000000000000
  6       0.000000000000
  7       0.000000000000
  8       0.000000000000
  9       0.000000000000
 10       0.000000000000
 11       0.000000000000
 12      -0.000000000000
 13       0.000000000000
 14      -0.309858541004
 15       0.000000000000
 16      -0.000000000000
 17       0.976375111210
 18      -0.000000000000
 19       0.000000000000
 20       0.111161562544
 21       0.000000000000
 22      -0.000000000000
 23       0.000526960708
 24      -0.000000000000
 25       0.000000000000
 26       0.003829124290
 27       0.000000000000
 28      -0.000000000000
 29      -0.000558599354
 30       0.000000000000
 31       0.000000000000
 32       0.000000000000
 33       0.000000000000
 34       0.000000000000
 35      -0.000000000000
 36      -0.000000000000
 37       0.000000000000
 38      -0.000000000000
 39      -0.000000000000
 40      -0.000000000000
 41      -0.000000000000
 42       0.000000000000
 43       0.000000000000
 44       0.000000000000
 45       0.000000000000
 46      -0.000000000000
 47       0.000000000000
 48       0.000000000000
 49       0.000000000000
 50      -0.000000000000
 51      -0.000000000000
 52      -0.000000000000
 53       0.000000000000
 54      -0.000000000000
 55       0.000000000000
 56       0.000000000000
 Sym=     1a
 Ene= -9.55127431286541E-01
 Spin= Alpha
 Occup= 1.000000
  1       0.000000000000
  2       0.000000000000
  3       0.000000000000
  4       0.000000000000
  5       0.000000000000
  6       0.000000000000
  7       0.000000000000
  8       0.000000000000
  9       0.000000000000
 10       0.000000000000
 11       0.000000000000
 12       0.309858541004
 13      -0.000000000000
 14       0.000000000000
 15      -0.976375111210
 16       0.000000000000
 17       0.000000000000
 18      -0.111161562544
 19      -0.000000000000
 20      -0.000000000000
 21      -0.000526960708
 22       0.000000000000
 23       0.000000000000
 24      -0.003829124290
 25      -0.000000000000
 26      -0.000000000000
 27       0.000558599354
 28       0.000000000000
 29       0.000000000000
 30      -0.000000000000
 31      -0.000000000000
 32       0.000000000000
 33       0.000000000000
 34      -0.000000000000
 35       0.000000000000
 36       0.000000000000
 37      -0.000000000000
 38      -0.000000000000
 39      -0.000000000000
 40      -0.000000000000
 41      -0.000000000000
 42      -0.000000000000
 43       0.000000000000
 44       0.000000000000
 45      -0.000000000000
 46       0.000000000000
 47       0.000000000000
 48       0.000000000000
 49       0.000000000000
 50       0.000000000000
 51       0.000000000000
 52      -0.000000000000
 53      -0.000000000000
 54      -0.000000000000
 55       0.000000000000
 56       0.000000000000
 Sym=     1a
 Ene= -9.55127431286541E-01
 Spin= Alpha
 Occup= 1.000000
  1       0.000000000000
  2       0.000000000000
  3       0.000000000000
  4       0.000000000000
  5       0.000000000000
  6       0.000000000000
  7       0.000000000000
  8       0.000000000000
  9       0.000000000000
 10       0.000000000000
 11       0.000000000000
 12      -0.000000000000
 13      -0.309858541004
 14       0.000000000000
 15      -0.000000000000
 16       0.976375111210
 17      -0.000000000000
 18      -0.000000000000
 19       0.111161562544
 20       0.000000000000
 21       0.000000000000
 22       0.000526960708
 23      -0.000000000000
 24       0.000000000000
 25       0.003829124290
 26       0.000000000000
 27       0.000000000000
 28      -0.000558599354
 29       0.000000000000
 30       0.000000000000
 31       0.000000000000
 32       0.000000000000
 33       0.000000000000
 34       0.000000000000
 35      -0.000000000000
 36      -0.000000000000
 37      -0.000000000000
 38      -0.000000000000
 39      -0.000000000000
 40       0.000000000000
 41      -0.000000000000
 42      -0.000000000000
 43      -0.000000000000
 44       0.000000000000
 45      -0.000000000000
 46       0.000000000000
 47       0.000000000000
 48       0.000000000000
 49      -0.000000000000
 50       0.000000000000
 51      -0.000000000000
 52       0.000000000000
 53       0.000000000000
 54      -0.000000000000
 55       0.000000000000
 56      -0.000000000000
 Sym=     1a
 Ene= -1.47642015986776E-01
 Spin= Alpha
 Occup= 1.000000
  1      -0.017837418973
  2      -0.012609512257
  3       0.007663133188
  4       0.056108107208
  5       0.084291768485
  6      -0.050410972432
  7      -0.156413351657
  8      -0.249519416304
  9      -0.079249876183
 10       0.717086923888
 11       0.474665755231
 12      -0.000000000000
 13       0.000000000000
 14      -0.000000000000
 15       0.000000000000
 16       0.000000000000
 17      -0.000000000000
 18      -0.000000000000
 19      -0.000000000000
 20       0.000000000000
 21       0.000000000000
 22       0.000000000000
 23      -0.000000000000
 24      -0.000000000000
 25      -0.000000000000
 26       0.000000000000
 27       0.000000000000
 28      -0.000000000000
 29      -0.000000000000
 30       0.000000000000
 31       0.000000000000
 32       0.000000000000
 33       0.000000000000
 34       0.000000000000
 35      -0.000000000000
 36      -0.000000000000
 37       0.000000000000
 38      -0.000000000000
 39       0.000000000000
 40       0.000000000000
 41       0.000000000000
 42       0.000000000000
 43       0.000000000000
 44      -0.000000000000
 45       0.000000000000
 46      -0.000000000000
 47       0.000000000000
 48      -0.000000000000
 49       0.000000000000
 50      -0.000000000000
 51       0.000000000000
 52      -0.000000000000
 53      -0.000000000000
 54      -0.000000000000
 55      -0.000000000000
 56       0.000000000000
 Sym=     1a
 Ene= 1.33025266343625E-02
 Spin= Alpha
 Occup= 0.000000
  1       0.000000000000
  2       0.000000000000
  3       0.000000000000
  4       0.000000000000
  5       0.000000000000
  6       0.000000000000
  7       0.000000000000
  8       0.000000000000
  9       0.000000000000
 10       0.000000000000
 11       0.000000000000
 12       0.000000000000
 13      -0.029142984693
 14       0.000000000000
 15       0.000000000000
 16       0.102221909148
 17      -0.000000000000
 18      -0.000000000000
 19       0.104236932361
 20       0.000000000000
 21       0.000000000000
 22      -0.316736082646
 23      -0.000000000000
 24      -0.000000000000
 25       0.344770142605
 26       0.000000000000
 27       0.000000000000
 28      -1.151799146448
 29       0.000000000000
 30      -0.000000000000
 31       0.000000000000
 32      -0.000000000000
 33      -0.000000000000
 34       0.000000000000
 35      -0.000000000000
 36       0.000000000000
 37       0.000000000000
 38      -0.000000000000
 39      -0.000000000000
 40       0.000000000000
 41       0.000000000000
 42       0.000000000000
 43       0.000000000000
 44      -0.000000000000
 45       0.000000000000
 46      -0.000000000000
 47      -0.000000000000
 48       0.000000000000
 49       0.000000000000
 50      -0.000000000000
 51       0.000000000000
 52       0.000000000000
 53      -0.000000000000
 54       0.000000000000
 55       0.000000000000
 56       0.000000000000
 Sym=     1a
 Ene= 1.33025266343632E-02
 Spin= Alpha
 Occup= 0.000000
  1       0.000000000000
  2       0.000000000000
  3       0.000000000000
  4       0.000000000000
  5       0.000000000000
  6       0.000000000000
  7       0.000000000000
  8       0.000000000000
  9       0.000000000000
 10       0.000000000000
 11       0.000000000000
 12       0.029142984693
 13      -0.000000000000
 14      -0.000000000000
 15      -0.102221909148
 16       0.000000000000
 17       0.000000000000
 18      -0.104236932361
 19      -0.000000000000
 20      -0.000000000000
 21       0.316736082645
 22      -0.000000000000
 23       0.000000000000
 24      -0.344770142605
 25       0.000000000000
 26      -0.000000000000
 27       1.151799146447
 28       0.000000000000
 29       0.000000000000
 30       0.000000000000
 31      -0.000000000000
 32       0.000000000000
 33       0.000000000000
 34      -0.000000000000
 35      -0.000000000000
 36      -0.000000000000
 37      -0.000000000000
 38       0.000000000000
 39       0.000000000000
 40       0.000000000000
 41       0.000000000000
 42       0.000000000000
 43      -0.000000000000
 44      -0.000000000000
 45       0.000000000000
 46      -0.000000000000
 47      -0.000000000000
 48       0.000000000000
 49      -0.000000000000
 50       0.000000000000
 51      -0.000000000000
 52       0.000000000000
 53      -0.000000000000
 54       0.000000000000
 55      -0.000000000000
 56       0.000000000000
 Sym=     1a
 Ene= 1.33025266343635E-02
 Spin= Alpha
 Occup= 0.000000
  1       0.000000000000
  2       0.000000000000
  3       0.000000000000
  4       0.000000000000
  5       0.000000000000
  6       0.000000000000
  7       0.000000000000
  8       0.000000000000
  9       0.000000000000
 10       0.000000000000
 11       0.000000000000
 12      -0.000000000000
 13       0.000000000000
 14       0.029142984693
 15      -0.000000000000
 16       0.000000000000
 17      -0.102221909148
 18      -0.000000000000
 19      -0.000000000000
 20      -0.104236932361
 21       0.000000000000
 22       0.000000000000
 23       0.316736082645
 24      -0.000000000000
 25      -0.000000000000
 26      -0.344770142605
 27       0.000000000000
 28       0.000000000000
 29       1.151799146448
 30      -0.000000000000
 31       0.000000000000
 32       0.000000000000
 33      -0.000000000000
 34       0.000000000000
 35       0.000000000000
 36      -0.000000000000
 37       0.000000000000
 38       0.000000000000
 39      -0.000000000000
 40      -0.000000000000
 41       0.000000000000
 42       0.000000000000
 43      -0.000000000000
 44       0.000000000000
 45      -0.000000000000
 46       0.000000000000
 47      -0.000000000000
 48       0.000000000000
 49      -0.000000000000
 50      -0.000000000000
 51       0.000000000000
 52       0.000000000000
 53       0.000000000000
 54       0.000000000000
 55      -0.000000000000
 56       0.000000000000
 Sym=     1a
 Ene= 6.21751223809937E-02
 Spin= Alpha
 Occup= 0.000000
  1      -0.011849784961
  2      -0.007598162171
  3       0.000555889346
  4       0.052513925161
  5       0.019627490193
  6       0.069605093192
  7      -0.327032779951
  8       0.187322621374
  9      -1.741032774325
 10       4.139411410386
 11      -2.676579058660
 12       0.000000000000
 13       0.000000000000
 14      -0.000000000000
 15       0.000000000000
 16       0.000000000000
 17      -0.000000000000
 18       0.000000000000
 19      -0.000000000000
 20       0.000000000000
 21      -0.000000000000
 22       0.000000000000
 23      -0.000000000000
 24       0.000000000000
 25      -0.000000000000
 26       0.000000000000
 27       0.000000000000
 28      -0.000000000000
 29      -0.000000000000
 30       0.000000000000
 31       0.000000000000
 32      -0.000000000000
 33       0.000000000000
 34       0.000000000000
 35      -0.000000000000
 36      -0.000000000000
 37       0.000000000000
 38       0.000000000000
 39      -0.000000000000
 40       0.000000000000
 41       0.000000000000
 42       0.000000000000
 43       0.000000000000
 44       0.000000000000
 45       0.000000000000
 46      -0.000000000000
 47       0.000000000000
 48       0.000000000000
 49      -0.000000000000
 50      -0.000000000000
 51       0.000000000000
 52       0.000000000000
 53      -0.000000000000
 54       0.000000000000
 55      -0.000000000000
 56       0.000000000000
 Sym=     1a
 Ene= 7.74377527951368E-02
 Spin= Alpha
 Occup= 0.000000
  1       0.000000000000
  2       0.000000000000
  3       0.000000000000
  4       0.000000000000
  5       0.000000000000
  6       0.000000000000
  7       0.000000000000
  8       0.000000000000
  9       0.000000000000
 10       0.000000000000
 11       0.000000000000
 12       0.000000000000
 13      -0.047970049299
 14      -0.000000000000
 15      -0.000000000000
 16       0.184716366574
 17       0.000000000000
 18       0.000000000000
 19      -0.179084325315
 20      -0.000000000000
 21      -0.000000000000
 22       0.835369504248
 23       0.000000000000
 24       0.000000000000
 25      -2.816214978577
 26      -0.000000000000
 27      -0.000000000000
 28       1.960611127353
 29      -0.000000000000
 30      -0.000000000000
 31      -0.000000000000
 32       0.000000000000
 33       0.000000000000
 34      -0.000000000000
 35       0.000000000000
 36       0.000000000000
 37      -0.000000000000
 38       0.000000000000
 39       0.000000000000
 40      -0.000000000000
 41      -0.000000000000
 42      -0.000000000000
 43      -0.000000000000
 44       0.000000000000
 45       0.000000000000
 46       0.000000000000
 47       0.000000000000
 48       0.000000000000
 49      -0.000000000000
 50       0.000000000000
 51      -0.000000000000
 52      -0.000000000000
 53       0.000000000000
 54      -0.000000000000
 55       0.000000000000
 56      -0.000000000000
 Sym=     1a
 Ene= 7.74377527951584E-02
 Spin= Alpha
 Occup= 0.000000
  1       0.000000000000
  2       0.000000000000
  3       0.000000000000
  4       0.000000000000
  5       0.000000000000
  6       0.000000000000
  7       0.000000000000
  8       0.000000000000
  9       0.000000000000
 10       0.000000000000
 11       0.000000000000
 12       0.000000000000
 13      -0.000000000000
 14       0.047970049299
 15      -0.000000000000
 16       0.000000000000
 17      -0.184716366574
 18       0.000000000000
 19       0.000000000000
 20       0.179084325315
 21      -0.000000000000
 22      -0.000000000000
 23      -0.835369504248
 24       0.000000000000
 25       0.000000000000
 26       2.816214978576
 27      -0.000000000000
 28      -0.000000000000
 29      -1.960611127353
 30      -0.000000000000
 31      -0.000000000000
 32      -0.000000000000
 33      -0.000000000000
 34      -0.000000000000
 35      -0.000000000000
 36       0.000000000000
 37       0.000000000000
 38       0.000000000000
 39       0.000000000000
 40       0.000000000000
 41      -0.000000000000
 42      -0.000000000000
 43      -0.000000000000
 44      -0.000000000000
 45       0.000000000000
 46      -0.000000000000
 47       0.000000000000
 48      -0.000000000000
 49       0.000000000000
 50       0.000000000000
 51      -0.000000000000
 52      -0.000000000000
 53      -0.000000000000
 54       0.000000000000
 55       0.000000000000
 56       0.000000000000
 Sym=     1a
 Ene= 7.74377527951767E-02
 Spin= Alpha
 Occup= 0.000000
  1       0.000000000000
  2       0.000000000000
  3       0.000000000000
  4       0.000000000000
  5       0.000000000000
  6       0.000000000000
  7       0.000000000000
  8       0.000000000000
  9       0.000000000000
 10       0.000000000000
 11       0.000000000000
 12       0.047970049299
 13       0.000000000000
 14       0.000000000000
 15      -0.184716366574
 16      -0.000000000000
 17      -0.000000000000
 18       0.179084325314
 19       0.000000000000
 20       0.000000000000
 21      -0.835369504247
 22       0.000000000000
 23      -0.000000000000
 24       2.816214978575
 25      -0.000000000000
 26       0.000000000000
 27      -1.960611127353
 28      -0.000000000000
 29      -0.000000000000
 30      -0.000000000000
 31      -0.000000000000
 32      -0.000000000000
 33      -0.000000000000
 34       0.000000000000
 35       0.000000000000
 36       0.000000000000
 37       0.000000000000
 38      -0.000000000000
 39       0.000000000000
 40      -0.000000000000
 41      -0.000000000000
 42      -0.000000000000
 43       0.000000000000
 44       0.000000000000
 45       0.000000000000
 46       0.000000000000
 47       0.000000000000
 48      -0.000000000000
 49      -0.000000000000
 50      -0.000000000000
 51       0.000000000000
 52      -0.000000000000
 53      -0.000000000000
 54      -0.000000000000
 55       0.000000000000
 56       0.000000000000
 Sym=     1a
 Ene= 1.28130573753505E-01
 Spin= Alpha
 Occup= 0.000000
  1      -0.000000000000
  2       0.000000000000
  3      -0.000000000000
  4       0.000000000000
  5      -0.000000000000
  6       0.000000000000
  7      -0.000000000000
  8       0.000000000000
  9      -0.000000000001
 10       0.000000000001
 11      -0.000000000000
 12       0.000000000000
 13      -0.000000000000
 14      -0.000000000000
 15      -0.000000000000
 16       0.000000000000
 17       0.000000000000
 18       0.000000000000
 19       0.000000000000
 20      -0.000000000000
 21      -0.000000000000
 22       0.000000000000
 23       0.000000000000
 24      -0.000000000000
 25       0.000000000000
 26      -0.000000000000
 27       0.000000000000
 28       0.000000000000
 29       0.000000000000
 30      -0.035435846396
 31       0.000000000000
 32       0.000000000000
 33       0.000092509000
 34       0.000000000000
 35      -0.095936143667
 36      -0.000000000000
 37      -0.000000000000
 38       0.000250451383
 39      -0.000000000000
 40       0.013052701379
 41      -0.000000000000
 42       0.000000000000
 43      -0.000034075448
 44       0.000000000000
 45      -0.985011338179
 46      -0.000000000000
 47       0.000000000000
 48       0.002571475589
 49      -0.000000000000
 50       0.000000000000
 51      -0.000000000000
 52       0.000000000000
 53       0.000000000000
 54       0.000000000000
 55      -0.000000000000
 56       0.000000000000
 Sym=     1a
 Ene= 1.28130573753556E-01
 Spin= Alpha
 Occup= 0.000000
  1       0.000000000000
  2      -0.000000000000
  3       0.000000000000
  4      -0.000000000000
  5       0.000000000000
  6      -0.000000000000
  7       0.000000000000
  8      -0.000000000000
  9       0.000000000000
 10      -0.000000000000
 11       0.000000000000
 12       0.000000000000
 13      -0.000000000000
 14       0.000000000000
 15      -0.000000000000
 16       0.000000000000
 17      -0.000000000000
 18       0.000000000000
 19       0.000000000000
 20       0.000000000000
 21      -0.000000000000
 22      -0.000000000000
 23      -0.000000000000
 24      -0.000000000000
 25      -0.000000000000
 26       0.000000000000
 27       0.000000000000
 28      -0.000000000000
 29       0.000000000000
 30       0.000092509000
 31      -0.000000000000
 32      -0.000000000000
 33       0.035435846396
 34      -0.000000000000
 35       0.000250451383
 36      -0.000000000000
 37      -0.000000000000
 38       0.095936143667
 39       0.000000000000
 40      -0.000034075448
 41       0.000000000000
 42       0.000000000000