
                                 *****************
                                 * O   R   C   A *
                                 *****************

           --- An Ab Initio, DFT and Semiempirical electronic structure package ---

                  #######################################################
                  #                        -***-                        #
                  #  Department of molecular theory and spectroscopy    #
                  #              Directorship: Frank Neese              #
                  # Max Planck Institute for Chemical Energy Conversion #
                  #                  D-45470 Muelheim/Ruhr              #
                  #                       Germany                       #
                  #                                                     #
                  #                  All rights reserved                #
                  #                        -***-                        #
                  #######################################################


                         Program Version 4.0.1.2 - RELEASE -


 With contributions from (in alphabetic order):
   Daniel Aravena         : Magnetic Properties
   Michael Atanasov       : Ab Initio Ligand Field Theory
   Ute Becker             : Parallelization
   Martin Brehm           : Molecular dynamics
   Dmytro Bykov           : SCF Hessian
   Vijay G. Chilkuri      : MRCI spin determinant printing
   Dipayan Datta          : RHF DLPNO-CCSD density
   Achintya Kumar Dutta   : EOM-CC, STEOM-CC
   Dmitry Ganyushin       : Spin-Orbit,Spin-Spin,Magnetic field MRCI
   Yang Guo               : DLPNO-NEVPT2, CIM, IAO-localization
   Andreas Hansen         : Spin unrestricted coupled pair/coupled cluster methods
   Lee Huntington         : MR-EOM, pCC
   Robert Izsak           : Overlap fitted RIJCOSX, COSX-SCS-MP3, EOM
   Christian Kollmar      : KDIIS, OOCD, Brueckner-CCSD(T), CCSD density
   Simone Kossmann        : Meta GGA functionals, TD-DFT gradient, OOMP2, MP2 Hessian
   Martin Krupicka        : AUTO-CI
   Dagmar Lenk            : GEPOL surface
   Dimitrios Liakos       : Extrapolation schemes; parallel MDCI
   Dimitrios Manganas     : ROCIS; embedding schemes
   Dimitrios Pantazis     : SARC Basis sets
   Taras Petrenko         : DFT Hessian,TD-DFT gradient, ASA, ECA, R-Raman, ABS, FL, XAS/XES, NRVS
   Peter Pinski           : DLPNO-MP2
   Christoph Reimann      : Effective Core Potentials
   Marius Retegan         : Local ZFS, SOC
   Christoph Riplinger    : Optimizer, TS searches, QM/MM, DLPNO-CCSD(T), (RO)-DLPNO pert. Triples
   Tobias Risthaus        : Range-separated hybrids, TD-DFT gradient, RPA, STAB
   Michael Roemelt        : Restricted open shell CIS
   Masaaki Saitow         : Open-shell DLPNO
   Barbara Sandhoefer     : DKH picture change effects
   Kantharuban Sivalingam : CASSCF convergence, NEVPT2, FIC-MRCI
   Georgi Stoychev        : AutoAux
   Boris Wezisla          : Elementary symmetry handling
   Frank Wennmohs         : Technical directorship


 We gratefully acknowledge several colleagues who have allowed us to
 interface, adapt or use parts of their codes:
   Stefan Grimme, W. Hujo, H. Kruse,             : VdW corrections, initial TS optimization,
                  C. Bannwarth                     DFT functionals, gCP, sTDA/sTD-DF
   Ed Valeev                                     : LibInt (2-el integral package), F12 methods
   Garnet Chan, S. Sharma, J. Yang, R. Olivares  : DMRG
   Ulf Ekstrom                                   : XCFun DFT Library
   Mihaly Kallay                                 : mrcc  (arbitrary order and MRCC methods)
   Andreas Klamt, Michael Diedenhofen            : otool_cosmo (COSMO solvation model)
   Jiri Pittner, Ondrej Demel                    : Mk-CCSD
   Frank Weinhold                                : gennbo (NPA and NBO analysis)
   Christopher J. Cramer and Donald G. Truhlar   : smd solvation model


 Your calculation uses the libint2 library for the computation of 2-el integrals
 For citations please refer to: http://libint.valeyev.net

 This ORCA versions uses:
   CBLAS   interface :  Fast vector & matrix operations
   LAPACKE interface :  Fast linear algebra routines
   SCALAPACK package :  Parallel linear algebra routines




*****************************************
The coordinations will be read from file: ../../../../chem_database/O.xyz
*****************************************


Your calculation utilizes the basis: def2-QZVP
   F. Weigend and R. Ahlrichs, Phys. Chem. Chem. Phys. 7, 3297 (2005).

================================================================================
                                        WARNINGS
                       Please study these warnings very carefully!
================================================================================

Warning: TCutStore was < 0. Adjusted to Thresh (uncritical)

WARNING: your system is open-shell and RHF/RKS was chosen
  ===> : WILL SWITCH to UHF/UKS


INFO   : the flag for use of LIBINT has been found!

================================================================================
                                       INPUT FILE
================================================================================
NAME = mol.inp
|  1> # ================================================================
|  2> # Orca input file
|  3> # ================================================================
|  4> ! HF def2-QZVP VeryTightSCF UseSym
|  5> 
|  6> ! PAL4
|  7> 
|  8> %scf
|  9>   STABPerform true
| 10> #  STABRestartUHFifUnstable true
| 11> end
| 12> 
| 13> 
| 14> 
| 15> * xyzfile 0 3 ../../../../chem_database/O.xyz
| 16> 
| 17>                          ****END OF INPUT****
================================================================================

------------------------------------------------------------------------------
                            SYMMETRY HANDLING SETUP
------------------------------------------------------------------------------

------------------
SYMMETRY DETECTION
------------------
Preparing Data                    ... done
Detection Threshold:    SymThresh ... 1.0000e-04

Point Group will now be determined:
Moving molecule to center of mass ... done

POINT GROUP                       ... Kh

The coordinates will now be cleaned:
Structure cleanup requested       ... yes
Selected point group              ... Kh
Cleaning Tolerance      SymThresh ... 1.0000e-04

Cleaning coordinates              ... done

-----------------------------------------------
SYMMETRY-PERFECTED CARTESIAN COORDINATES (A.U.)
-----------------------------------------------
Warning (ORCA_SYM): Coordinates were not cleaned so far!

------------------
SYMMETRY REDUCTION
------------------
ORCA supports only abelian point groups.
It is now checked, if the determined point group is supported:
Point Group ( Kh    ) is          ... NOT supported
Reducing to abelian subgroup      ... D2h

(Re)building abelian point group:
Creating Character Table          ... done
Making direct product table       ... done
Constructing symmetry operations  ... done
Creating atom transfer table      ... done
Creating asymmetric unit          ... done

----------------------
ASYMMETRIC UNIT IN D2h
----------------------
  #  AT     MASS              COORDS (A.U.)             BAS
   0 O   15.9990   0.00000000   0.00000000   0.00000000   0

----------------------
SYMMETRY ADAPTED BASIS
----------------------
The coefficients for the symmetry adapted linear combinations (SALCS)
of basis functions will now be computed:
Number of basis functions         ...    57
Preparing memory                  ... done
Constructing Gamma(red)           ... done
Reducing Gamma(red)               ... done
Constructing SALCs                ... done
Checking SALC integrity           ... nothing suspicious
Normalizing SALCs                 ... done

Storing the symmetry object:
Symmetry file                     ... mol.sym.tmp
Writing symmetry information      ... done

                       ****************************
                       * Single Point Calculation *
                       ****************************

---------------------------------
CARTESIAN COORDINATES (ANGSTROEM)
---------------------------------
  O      0.000000    0.000000    0.000000

----------------------------
CARTESIAN COORDINATES (A.U.)
----------------------------
  NO LB      ZA    FRAG     MASS         X           Y           Z
   0 O     8.0000    0    15.999    0.000000    0.000000    0.000000

--------------------------------
INTERNAL COORDINATES (ANGSTROEM)
--------------------------------
 O      0   0   0     0.000000000000     0.00000000     0.00000000

---------------------------
INTERNAL COORDINATES (A.U.)
---------------------------
 O      0   0   0     0.000000000000     0.00000000     0.00000000

---------------------
BASIS SET INFORMATION
---------------------
There are 1 groups of distinct atoms

 Group   1 Type O   : 15s8p3d2f1g contracted to 7s4p3d2f1g pattern {8211111/5111/111/11/1}

Atom   0O    basis set group =>   1


           ************************************************************
           *        Program running with 4 parallel MPI-processes     *
           *              working on a common directory               *
           ************************************************************
------------------------------------------------------------------------------
                           ORCA GTO INTEGRAL CALCULATION
------------------------------------------------------------------------------

                         BASIS SET STATISTICS AND STARTUP INFO

 # of primitive gaussian shells          ...   29
 # of primitive gaussian functions       ...   77
 # of contracted shells                  ...   17
 # of contracted basis functions         ...   57
 Highest angular momentum                ...    4
 Maximum contraction depth               ...    8
 Integral package used                   ... LIBINT
 Integral threshhold            Thresh   ...  1.000e-12
 Primitive cut-off              TCut     ...  1.000e-14


------------------------------ INTEGRAL EVALUATION ----------------------------


 * One electron integrals 
 Pre-screening matrix                    ... done
 Shell pair data                         ... done (   0.000 sec)



           ************************************************************
           *        Program running with 4 parallel MPI-processes     *
           *              working on a common directory               *
           ************************************************************
-------------------------------------------------------------------------------
                                 ORCA SCF
-------------------------------------------------------------------------------

------------
SCF SETTINGS
------------
Hamiltonian:
 Ab initio Hamiltonian  Method          .... Hartree-Fock(GTOs)


General Settings:
 Integral files         IntName         .... mol
 Hartree-Fock type      HFTyp           .... UHF
 Total Charge           Charge          ....    0
 Multiplicity           Mult            ....    3
 Number of Electrons    NEL             ....    8
 Basis Dimension        Dim             ....   57
 Nuclear Repulsion      ENuc            ....      0.0000000000 Eh

 Symmetry handling      UseSym         .... ON
 Point group                           .... D2h
 Used point group                      .... D2h
 Number of irreps                      .... 8
   Irrep   Ag has   16 symmetry adapted basis functions (ofs=   0)
   Irrep  B1g has    5 symmetry adapted basis functions (ofs=  16)
   Irrep  B2g has    5 symmetry adapted basis functions (ofs=  21)
   Irrep  B3g has    5 symmetry adapted basis functions (ofs=  26)
   Irrep   Au has    2 symmetry adapted basis functions (ofs=  31)
   Irrep  B1u has    8 symmetry adapted basis functions (ofs=  33)
   Irrep  B2u has    8 symmetry adapted basis functions (ofs=  41)
   Irrep  B3u has    8 symmetry adapted basis functions (ofs=  49)

Convergence Acceleration:
 DIIS                   CNVDIIS         .... on
   Start iteration      DIISMaxIt       ....    12
   Startup error        DIISStart       ....  0.200000
   # of expansion vecs  DIISMaxEq       ....     5
   Bias factor          DIISBfac        ....   1.050
   Max. coefficient     DIISMaxC        ....  10.000
 Newton-Raphson         CNVNR           .... off
 SOSCF                  CNVSOSCF        .... off
 Level Shifting         CNVShift        .... on
   Level shift para.    LevelShift      ....    0.2500
   Turn off err/grad.   ShiftErr        ....    0.0010
 Zerner damping         CNVZerner       .... off
 Static damping         CNVDamp         .... on
   Fraction old density DampFac         ....    0.7000
   Max. Damping (<1)    DampMax         ....    0.9800
   Min. Damping (>=0)   DampMin         ....    0.0000
   Turn off err/grad.   DampErr         ....    0.1000
 Fernandez-Rico         CNVRico         .... off

SCF Procedure:
 Maximum # iterations   MaxIter         ....   125
 SCF integral mode      SCFMode         .... Direct
   Integral package                     .... LIBINT
 Reset frequeny         DirectResetFreq ....    20
 Integral Threshold     Thresh          ....  1.000e-12 Eh
 Primitive CutOff       TCut            ....  1.000e-14 Eh

Convergence Tolerance:
 Convergence Check Mode ConvCheckMode   .... Total+1el-Energy
 Convergence forced     ConvForced      .... 0
 Energy Change          TolE            ....  1.000e-09 Eh
 1-El. energy change                    ....  1.000e-06 Eh
 DIIS Error             TolErr          ....  1.000e-08


Diagonalization of the overlap matrix:
Smallest eigenvalue                        ... 5.807e-03
Time for diagonalization                   ...    0.005 sec
Threshold for overlap eigenvalues          ... 1.000e-08
Number of eigenvalues below threshold      ... 0
Time for construction of square roots      ...    0.001 sec
Producing symmetrization matrix            ... done (   0.000 sec)
Total time needed                          ...    0.007 sec

-------------------
DFT GRID GENERATION
-------------------

General Integration Accuracy     IntAcc      ...  4.340
Radial Grid Type                 RadialGrid  ... Gauss-Chebyshev
Angular Grid (max. acc.)         AngularGrid ... Lebedev-110
Angular grid pruning method      GridPruning ... 3 (G Style)
Weight generation scheme         WeightScheme... Becke
Basis function cutoff            BFCut       ...    1.0000e-12
Integration weight cutoff        WCut        ...    1.0000e-14
Grids for H and He will be reduced by one unit

# of grid points (after initial pruning)     ...   1716 (   0.0 sec)
# of grid points (after weights+screening)   ...   1716 (   0.0 sec)
Grid point division into batches done        ...    0.0 sec
Reduced shell lists constructed in    0.0 sec

Total number of grid points                  ...     1716
Total number of batches                      ...       27
Average number of points per batch           ...       63
Average number of grid points per atom       ...     1716
Average number of shells per batch           ...    10.00 (58.82%)
Average number of basis functions per batch  ...    38.50 (67.54%)
Average number of large shells per batch     ...     8.00 (80.00%)
Average number of large basis fcns per batch ...    29.00 (75.32%)
Maximum spatial batch extension              ...  13.89, 25.65, 25.65 au
Average spatial batch extension              ...   3.20,  4.33,  5.32 au

Time for grid setup =    0.022 sec

------------------------------
INITIAL GUESS: MODEL POTENTIAL
------------------------------
Loading Hartree-Fock densities                     ... done
Calculating cut-offs                               ... done
Setting up the integral package                    ... done
Initializing the effective Hamiltonian             ... done
Starting the Coulomb interaction                   ... done (   0.0 sec)
Reading the grid                                   ... done
Mapping shells                                     ... done
Starting the XC term evaluation                    ... done (   0.0 sec)
done (   0.0 sec)
Diagonalizing the Hamiltonian                      ... done (   0.0 sec)
Back transforming the eigenvectors                 ... done (   0.0 sec)
Now organizing SCF variables                       ... done
The symmetry of the initial guess is 3-B1g
Irrep occupations for operator 0
    Ag -    2
   B1g -    0
   B2g -    0
   B3g -    0
    Au -    0
   B1u -    1
   B2u -    1
   B3u -    1
Irrep occupations for operator 1
    Ag -    2
   B1g -    0
   B2g -    0
   B3g -    0
    Au -    0
   B1u -    1
   B2u -    0
   B3u -    0
                      ------------------
                      INITIAL GUESS DONE (   0.2 sec)
                      ------------------
--------------
SCF ITERATIONS
--------------
ITER       Energy         Delta-E        Max-DP      RMS-DP      [F,P]     Damp
               ***  Starting incremental Fock matrix formation  ***
  0    -74.7967827760   0.000000000000 0.00779845  0.00028659  0.3896530 0.7000
  1    -74.8020904584  -0.005307682407 0.00763935  0.00025282  0.2777636 0.7000
                               ***Turning on DIIS***
  2    -74.8062386225  -0.004148164071 0.00637747  0.00020095  0.1973793 0.7000
  3    -74.7712212226   0.035017399887 0.00614313  0.00018184  0.1403837 0.7000
  4    -74.7778804847  -0.006659262112 0.01726348  0.00051144  0.0991361 0.0000
  5    -74.8178919734  -0.040011488673 0.00234166  0.00008461  0.0048394 0.0000
  6    -74.8172443227   0.000647650663 0.00221837  0.00007925  0.0026491 0.0000
  7    -74.8184567926  -0.001212469857 0.00094511  0.00003507  0.0007669 0.0000
  8    -74.8186600746  -0.000203282038 0.00026403  0.00000824  0.0001360 0.0000
  9    -74.8186580202   0.000002054368 0.00008487  0.00000287  0.0000205 0.0000
 10    -74.8186317372   0.000026283026 0.00002279  0.00000093  0.0000048 0.0000
 11    -74.8186303771   0.000001360112 0.00001024  0.00000044  0.0000028 0.0000
 12    -74.8186301196   0.000000257539 0.00000448  0.00000020  0.0000009 0.0000
 13    -74.8186293353   0.000000784272 0.00000038  0.00000001  0.0000001 0.0000
                            ***DIIS convergence achieved***

               *****************************************************
               *                     SUCCESS                       *
               *           SCF CONVERGED AFTER  14 CYCLES          *
               *****************************************************


------------------------------------------------------------------------------
                          SCF STABILITY ANALYSIS                              
------------------------------------------------------------------------------


                       ****Iteration    0****

   Memory handling for direct AO based CIS:
   Memory per vector needed      ...     1 MB
   Memory needed                 ...     0 MB
   Memory available              ...  1024 MB
   Number of vectors per batch   ...  1024
   Number of batches             ...     1
   Time for densities:     0.000
   Using LibInt in JK Direct
   Time for J+K (Direct):     0.184
   Time for Sigma-Completion:     0.001
   Lowest Energy          :     0.027297419907
   Maximum Energy change  :     0.591581021317 (vector 2)
   Maximum residual norm  :     0.105694908403

                       ****Iteration    1****
   Time for densities:     0.000
   Using LibInt in JK Direct
   Time for J+K (Direct):     0.178
   Time for Sigma-Completion:     0.001
   Lowest Energy          :     0.000309208613
   Maximum Energy change  :     0.096326389006 (vector 2)
   Maximum residual norm  :     0.046135547056

                       ****Iteration    2****
   Time for densities:     0.000
   Using LibInt in JK Direct
   Time for J+K (Direct):     0.175
   Time for Sigma-Completion:     0.000
   Lowest Energy          :     0.000140162727
   Maximum Energy change  :     0.035085248728 (vector 2)
   Maximum residual norm  :     0.003403928895

                       ****Iteration    3****
   Time for densities:     0.000
   Using LibInt in JK Direct
   Time for J+K (Direct):     0.175
   Time for Sigma-Completion:     0.000
   Lowest Energy          :     0.000133939576
   Maximum Energy change  :     0.002624099091 (vector 2)
   Maximum residual norm  :     0.000456859705

                       ****Iteration    4****
   Time for densities:     0.000
   Using LibInt in JK Direct
   Time for J+K (Direct):     0.152
   Time for Sigma-Completion:     0.000
   Lowest Energy          :     0.000133916339
   Maximum Energy change  :     0.000350576364 (vector 2)
   Maximum residual norm  :     0.000200638374

                       ****Iteration    5****
   Time for densities:     0.000
   Using LibInt in JK Direct
   Time for J+K (Direct):     0.131
   Time for Sigma-Completion:     0.000
   Lowest Energy          :     0.000133916339
   Maximum Energy change  :     0.000057060715 (vector 2)

         *** CONVERGENCE OF ENERGIES REACHED ***

----------------------------- 
SCF STABILITY ANALYSIS RESULT 
----------------------------- 

UHF/UKS->UHF/UKS - singlet - internal

   Root    Eigenvalue (au) 
     0       0.000134 
     1       0.000134 
     2       0.457138 

Stability Analysis indicates a stable HF/KS wave function.


Total time for performing the stability analysis:     1.008sec


----------------
TOTAL SCF ENERGY
----------------

Total Energy       :          -74.81862931 Eh           -2035.91841 eV

Components:
Nuclear Repulsion  :            0.00000000 Eh               0.00000 eV
Electronic Energy  :          -74.81862931 Eh           -2035.91841 eV
One Electron Energy:         -103.25471195 Eh           -2809.70355 eV
Two Electron Energy:           28.43608264 Eh             773.78515 eV

Virial components:
Potential Energy   :         -149.63913600 Eh           -4071.88790 eV
Kinetic Energy     :           74.82050669 Eh            2035.96949 eV
Virial Ratio       :            1.99997491


---------------
SCF CONVERGENCE
---------------

  Last Energy change         ...    2.4280e-08  Tolerance :   1.0000e-09
  Last MAX-Density change    ...    1.0250e-07  Tolerance :   1.0000e-08
  Last RMS-Density change    ...    4.2965e-09  Tolerance :   1.0000e-09
  Last DIIS Error            ...    1.3015e-08  Tolerance :   1.0000e-08

             **** THE GBW FILE WAS UPDATED (mol.gbw) ****
             **** DENSITY FILE WAS UPDATED (mol.scfp.tmp) ****
             **** ENERGY FILE WAS UPDATED (mol.en.tmp) ****
----------------------
UHF SPIN CONTAMINATION
----------------------

Expectation value of <S**2>     :     2.008921
Ideal value S*(S+1) for S=1.0   :     2.000000
Deviation                       :     0.008921

----------------
ORBITAL ENERGIES
----------------
                 SPIN UP ORBITALS
  NO   OCC          E(Eh)            E(eV)    Irrep 
   0   1.0000     -20.706989      -563.4658    1-Ag
   1   1.0000      -1.417758       -38.5791    2-Ag
   2   1.0000      -0.710579       -19.3358    1-B3u
   3   1.0000      -0.710579       -19.3358    1-B2u
   4   1.0000      -0.611116       -16.6293    1-B1u
   5   0.0000       0.338456         9.2099    2-B2u
   6   0.0000       0.338456         9.2099    2-B3u
   7   0.0000       0.360189         9.8012    2-B1u
   8   0.0000       0.519201        14.1282    3-Ag
   9   0.0000       1.152777        31.3687    1-B1g
  10   0.0000       1.152777        31.3687    4-Ag
  11   0.0000       1.188780        32.3483    1-B2g
  12   0.0000       1.188780        32.3483    1-B3g
  13   0.0000       1.201596        32.6971    5-Ag
  14   0.0000       1.503294        40.9067    3-B3u
  15   0.0000       1.503294        40.9067    3-B2u
  16   0.0000       1.557619        42.3850    3-B1u
  17   0.0000       3.062615        83.3380    6-Ag
  18   0.0000       3.316693        90.2518    4-B2u
  19   0.0000       3.316693        90.2518    4-B3u
  20   0.0000       3.352729        91.2324    4-B1u
  21   0.0000       3.352729        91.2324    1-Au
  22   0.0000       3.374644        91.8287    5-B3u
  23   0.0000       3.374644        91.8287    5-B2u
  24   0.0000       3.382012        92.0292    5-B1u
  25   0.0000       3.953071       107.5685    2-B1g
  26   0.0000       3.953071       107.5685    7-Ag
  27   0.0000       4.015171       109.2584    2-B2g
  28   0.0000       4.015171       109.2584    2-B3g
  29   0.0000       4.037029       109.8531    8-Ag
  30   0.0000       5.304853       144.3524    6-B3u
  31   0.0000       5.304853       144.3524    6-B2u
  32   0.0000       5.377421       146.3271    6-B1u
  33   0.0000       9.189612       250.0621    9-Ag
  34   0.0000       9.189612       250.0621    3-B1g
  35   0.0000       9.228420       251.1181    3-B3g
  36   0.0000       9.228420       251.1181    3-B2g
  37   0.0000       9.256453       251.8809    4-B1g
  38   0.0000       9.256453       251.8809   10-Ag
  39   0.0000       9.273403       252.3421    4-B2g
  40   0.0000       9.273403       252.3421    4-B3g
  41   0.0000       9.279076       252.4965   11-Ag
  42   0.0000      11.303732       307.5902    7-B2u
  43   0.0000      11.303732       307.5902    7-B3u
  44   0.0000      11.356430       309.0242    2-Au
  45   0.0000      11.356430       309.0242    7-B1u
  46   0.0000      11.388342       309.8925    8-B3u
  47   0.0000      11.388342       309.8925    8-B2u
  48   0.0000      11.399031       310.1834    8-B1u
  49   0.0000      12.332830       335.5934   12-Ag
  50   0.0000      12.332830       335.5934    5-B1g
  51   0.0000      12.396414       337.3236    5-B2g
  52   0.0000      12.396414       337.3236    5-B3g
  53   0.0000      12.415307       337.8377   13-Ag
  54   0.0000      12.795419       348.1810   14-Ag
  55   0.0000      47.869827      1302.6042   15-Ag
  56   0.0000     254.544055      6926.4959   16-Ag

                 SPIN DOWN ORBITALS
  NO   OCC          E(Eh)            E(eV)    Irrep 
   0   1.0000     -20.628606      -561.3329    1-Ag
   1   1.0000      -1.075419       -29.2636    2-Ag
   2   1.0000      -0.521501       -14.1908    1-B1u
   3   0.0000       0.086802         2.3620    1-B2u
   4   0.0000       0.086802         2.3620    1-B3u
   5   0.0000       0.372577        10.1383    2-B1u
   6   0.0000       0.446518        12.1504    2-B2u
   7   0.0000       0.446518        12.1504    2-B3u
   8   0.0000       0.567524        15.4431    3-Ag
   9   0.0000       1.237926        33.6857    4-Ag
  10   0.0000       1.242000        33.7965    1-B2g
  11   0.0000       1.242000        33.7965    1-B3g
  12   0.0000       1.257854        34.2280    1-B1g
  13   0.0000       1.257854        34.2280    5-Ag
  14   0.0000       1.590655        43.2839    3-B1u
  15   0.0000       1.650865        44.9223    3-B3u
  16   0.0000       1.650865        44.9223    3-B2u
  17   0.0000       3.154452        85.8370    6-Ag
  18   0.0000       3.394719        92.3750    4-B2u
  19   0.0000       3.394719        92.3750    4-B3u
  20   0.0000       3.405349        92.6643    4-B1u
  21   0.0000       3.405349        92.6643    1-Au
  22   0.0000       3.411603        92.8344    5-B3u
  23   0.0000       3.411603        92.8344    5-B2u
  24   0.0000       3.413666        92.8906    5-B1u
  25   0.0000       4.120477       112.1239    7-Ag
  26   0.0000       4.125488       112.2602    2-B2g
  27   0.0000       4.125488       112.2602    2-B3g
  28   0.0000       4.142570       112.7251    2-B1g
  29   0.0000       4.142570       112.7251    8-Ag
  30   0.0000       5.419679       147.4770    6-B1u
  31   0.0000       5.451449       148.3415    6-B3u
  32   0.0000       5.451449       148.3415    6-B2u
  33   0.0000       9.267567       252.1833    3-B1g
  34   0.0000       9.267567       252.1833    9-Ag
  35   0.0000       9.288284       252.7471    3-B3g
  36   0.0000       9.288284       252.7471    3-B2g
  37   0.0000       9.303099       253.1502   10-Ag
  38   0.0000       9.303099       253.1502    4-B1g
  39   0.0000       9.311992       253.3922    4-B3g
  40   0.0000       9.311992       253.3922    4-B2g
  41   0.0000       9.314958       253.4729   11-Ag
  42   0.0000      11.425440       310.9020    7-B2u
  43   0.0000      11.425440       310.9020    7-B3u
  44   0.0000      11.443989       311.4068    7-B1u
  45   0.0000      11.443989       311.4068    2-Au
  46   0.0000      11.455085       311.7087    8-B3u
  47   0.0000      11.455085       311.7087    8-B2u
  48   0.0000      11.458778       311.8092    8-B1u
  49   0.0000      12.476389       339.4998    5-B1g
  50   0.0000      12.476389       339.4998   12-Ag
  51   0.0000      12.484223       339.7130    5-B2g
  52   0.0000      12.484223       339.7130    5-B3g
  53   0.0000      12.486898       339.7858   13-Ag
  54   0.0000      12.869291       350.1912   14-Ag
  55   0.0000      47.904461      1303.5467   15-Ag
  56   0.0000     254.552892      6926.7364   16-Ag

                    ********************************
                    * MULLIKEN POPULATION ANALYSIS *
                    ********************************

--------------------------------------------
MULLIKEN ATOMIC CHARGES AND SPIN POPULATIONS
--------------------------------------------
   0 O :   -0.000000    2.000000
Sum of atomic charges         :   -0.0000000
Sum of atomic spin populations:    2.0000000

-----------------------------------------------------
MULLIKEN REDUCED ORBITAL CHARGES AND SPIN POPULATIONS
-----------------------------------------------------
CHARGE
  0 O s       :     3.998460  s :     3.998460
      pz      :     1.999859  p :     3.999682
      px      :     0.999912
      py      :     0.999912
      dz2     :     0.001540  d :     0.001540
      dxz     :     0.000000
      dyz     :     0.000000
      dx2y2   :     0.000000
      dxy     :     0.000000
      f0      :     0.000141  f :     0.000318
      f+1     :     0.000088
      f-1     :     0.000088
      f+2     :     0.000000
      f-2     :     0.000000
      f+3     :     0.000000
      f-3     :     0.000000
      g0      :     0.000000  g :     0.000000
      g+1     :     0.000000
      g-1     :     0.000000
      g+2     :     0.000000
      g-2     :     0.000000
      g+3     :     0.000000
      g-3     :     0.000000
      g+4     :     0.000000
      g-4     :     0.000000

SPIN
  0 O s       :     0.000555  s :     0.000555
      pz      :    -0.000135  p :     1.999688
      px      :     0.999912
      py      :     0.999912
      dz2     :    -0.000555  d :    -0.000555
      dxz     :     0.000000
      dyz     :    -0.000000
      dx2y2   :    -0.000000
      dxy     :     0.000000
      f0      :     0.000135  f :     0.000312
      f+1     :     0.000088
      f-1     :     0.000088
      f+2     :     0.000000
      f-2     :     0.000000
      f+3     :     0.000000
      f-3     :     0.000000
      g0      :     0.000000  g :     0.000000
      g+1     :     0.000000
      g-1     :     0.000000
      g+2     :    -0.000000
      g-2     :    -0.000000
      g+3     :     0.000000
      g-3     :     0.000000
      g+4     :     0.000000
      g-4     :     0.000000


                     *******************************
                     * LOEWDIN POPULATION ANALYSIS *
                     *******************************

-------------------------------------------
LOEWDIN ATOMIC CHARGES AND SPIN POPULATIONS
-------------------------------------------
   0 O :   -0.000000    2.000000

----------------------------------------------------
LOEWDIN REDUCED ORBITAL CHARGES AND SPIN POPULATIONS
----------------------------------------------------
CHARGE
  0 O s       :     3.998460  s :     3.998460
      pz      :     1.999859  p :     3.999682
      px      :     0.999912
      py      :     0.999912
      dz2     :     0.001540  d :     0.001540
      dxz     :     0.000000
      dyz     :     0.000000
      dx2y2   :     0.000000
      dxy     :     0.000000
      f0      :     0.000141  f :     0.000318
      f+1     :     0.000088
      f-1     :     0.000088
      f+2     :     0.000000
      f-2     :     0.000000
      f+3     :     0.000000
      f-3     :     0.000000
      g0      :     0.000000  g :     0.000000
      g+1     :     0.000000
      g-1     :     0.000000
      g+2     :     0.000000
      g-2     :     0.000000
      g+3     :     0.000000
      g-3     :     0.000000
      g+4     :     0.000000
      g-4     :     0.000000

SPIN
  0 O s       :     0.000555  s :     0.000555
      pz      :    -0.000135  p :     1.999688
      px      :     0.999912
      py      :     0.999912
      dz2     :    -0.000555  d :    -0.000555
      dxz     :     0.000000
      dyz     :     0.000000
      dx2y2   :    -0.000000
      dxy     :     0.000000
      f0      :     0.000135  f :     0.000312
      f+1     :     0.000088
      f-1     :     0.000088
      f+2     :     0.000000
      f-2     :     0.000000
      f+3     :     0.000000
      f-3     :     0.000000
      g0      :     0.000000  g :     0.000000
      g+1     :     0.000000
      g-1     :     0.000000
      g+2     :    -0.000000
      g-2     :    -0.000000
      g+3     :     0.000000
      g-3     :     0.000000
      g+4     :     0.000000
      g-4     :     0.000000


                      *****************************
                      * MAYER POPULATION ANALYSIS *
                      *****************************

  NA   - Mulliken gross atomic population
  ZA   - Total nuclear charge
  QA   - Mulliken gross atomic charge
  VA   - Mayer's total valence
  BVA  - Mayer's bonded valence
  FA   - Mayer's free valence

  ATOM       NA         ZA         QA         VA         BVA        FA
  0 O      8.0000     8.0000    -0.0000     2.0178     0.0000     2.0178

  Mayer bond orders larger than 0.1


-------
TIMINGS
-------

Total SCF time: 0 days 0 hours 0 min 3 sec 

Total time                  ....       3.751 sec
Sum of individual times     ....       3.735 sec  ( 99.6%)

Fock matrix formation       ....       2.544 sec  ( 67.8%)
Diagonalization             ....       0.012 sec  (  0.3%)
Density matrix formation    ....       0.001 sec  (  0.0%)
Population analysis         ....       0.002 sec  (  0.0%)
Initial guess               ....       0.141 sec  (  3.8%)
Orbital Transformation      ....       0.000 sec  (  0.0%)
Orbital Orthonormalization  ....       0.000 sec  (  0.0%)
DIIS solution               ....       0.005 sec  (  0.1%)
SCF Stability Analysis      ....       1.008 sec  ( 26.9%)

-------------------------   --------------------
FINAL SINGLE POINT ENERGY       -74.818629311006
-------------------------   --------------------


                            ***************************************
                            *     ORCA property calculations      *
                            ***************************************

                                    ---------------------
                                    Active property flags
                                    ---------------------
   (+) Dipole Moment


------------------------------------------------------------------------------
                       ORCA ELECTRIC PROPERTIES CALCULATION
------------------------------------------------------------------------------

Dipole Moment Calculation                       ... on
Quadrupole Moment Calculation                   ... off
Polarizability Calculation                      ... off
GBWName                                         ... mol.gbw
Electron density file                           ... mol.scfp.tmp
The origin for moment calculation is the CENTER OF MASS  = ( 0.000000,  0.000000  0.000000)

-------------
DIPOLE MOMENT
-------------
                                X             Y             Z
Electronic contribution:     -0.00000       0.00000      -0.00000
Nuclear contribution   :      0.00000       0.00000       0.00000
                        -----------------------------------------
Total Dipole Moment    :     -0.00000       0.00000      -0.00000
                        -----------------------------------------
Magnitude (a.u.)       :      0.00000
Magnitude (Debye)      :      0.00000


Timings for individual modules:

Sum of individual times         ...        4.418 sec (=   0.074 min)
GTO integral calculation        ...        0.454 sec (=   0.008 min)  10.3 %
SCF iterations                  ...        3.963 sec (=   0.066 min)  89.7 %
                             ****ORCA TERMINATED NORMALLY****
TOTAL RUN TIME: 0 days 0 hours 0 minutes 4 seconds 729 msec
