[Molden Format]
[Title]
 Molden file created by orca_2mkl for BaseName=mol

[Atoms] AU
O    1   8          0.0000000000         0.0000000000         0.0000000000 
[GTO]
  1 0
s   9 1.0 
    61420.0000000000         0.2523109447
     9199.0000000000         0.4711097668
     2091.0000000000         0.8141083530
      590.9000000000         1.3105521083
      192.3000000000         1.9452147541
       69.3200000000         2.5189696443
       26.9700000000         2.5959061389
       11.1000000000         1.7413677596
        4.6820000000         0.4962545287
s   9 1.0 
    61420.0000000000        -0.1560108294
     9199.0000000000        -0.2986035587
     2091.0000000000        -0.5125219219
      590.9000000000        -0.8405962883
      192.3000000000        -1.2550688345
       69.3200000000        -1.7417109539
       26.9700000000        -1.9637641678
       11.1000000000        -1.8492059614
        4.6820000000        -0.7339424471
s   1 1.0 
        1.4280000000         0.9310140775
s   1 1.0 
        0.5547000000         0.4580930645
s   1 1.0 
        0.2067000000         0.2184818928
p   3 1.0 
       63.4200000000         7.9918745596
       14.6600000000         8.8587972165
        4.4590000000         7.7143562521
p   1 1.0 
        1.5310000000         2.4274990927
p   1 1.0 
        0.5302000000         0.6448960875
p   1 1.0 
        0.1750000000         0.1613383640
d   1 1.0 
        3.7750000000        29.1457178613
d   1 1.0 
        1.3000000000         4.5120193149
d   1 1.0 
        0.4440000000         0.6884783394
f   1 1.0 
        2.6660000000        51.7827851834
f   1 1.0 
        0.8590000000         4.0502767393
g   1 1.0 
        1.8460000000        35.5309331412

[5D]
[9G]
[MO]
 Sym=     1a
 Ene= -2.07061467431522E+01
 Spin= Alpha
 Occup= 1.000000
  1      -0.989176695979
  2       0.001334265015
  3      -0.020453256897
  4       0.002965592843
  5      -0.001308603992
  6      -0.000000000000
  7       0.000000000000
  8      -0.000000000000
  9      -0.000000000000
 10       0.000000000000
 11       0.000000000000
 12      -0.000000000000
 13       0.000000000000
 14       0.000000000000
 15      -0.000000000000
 16       0.000000000000
 17      -0.000000000000
 18      -0.000414030364
 19       0.000000000000
 20       0.000000000000
 21      -0.000717121626
 22       0.000000000000
 23       0.000106753625
 24      -0.000000000000
 25      -0.000000000000
 26       0.000184902702
 27       0.000000000000
 28      -0.000049289387
 29       0.000000000000
 30       0.000000000000
 31      -0.000085371723
 32      -0.000000000000
 33       0.000000000000
 34       0.000000000000
 35      -0.000000000000
 36      -0.000000000000
 37       0.000000000000
 38      -0.000000000000
 39      -0.000000000000
 40      -0.000000000000
 41      -0.000000000000
 42       0.000000000000
 43       0.000000000000
 44       0.000000000000
 45       0.000000000000
 46       0.000000000000
 47      -0.000000223022
 48      -0.000000000000
 49       0.000000000000
 50      -0.000000332462
 51      -0.000000000000
 52      -0.000000000000
 53      -0.000000000000
 54       0.000000439806
 55       0.000000000000
 Sym=     1a
 Ene= -1.41680404878350E+00
 Spin= Alpha
 Occup= 1.000000
  1       0.000978001282
  2       0.367388612587
  3       0.301529293677
  4       0.610750792628
  5       0.239763670273
  6       0.000000000000
  7      -0.000000000000
  8      -0.000000000000
  9      -0.000000000000
 10       0.000000000000
 11       0.000000000000
 12      -0.000000000000
 13       0.000000000000
 14       0.000000000000
 15      -0.000000000000
 16      -0.000000000000
 17      -0.000000000000
 18       0.001196170117
 19       0.000000000000
 20       0.000000000000
 21       0.002071827417
 22      -0.000000000000
 23       0.006527541841
 24      -0.000000000000
 25      -0.000000000000
 26       0.011306034118
 27      -0.000000000000
 28       0.005112408280
 29       0.000000000000
 30       0.000000000000
 31       0.008854950890
 32       0.000000000000
 33       0.000000000000
 34       0.000000000000
 35      -0.000000000000
 36      -0.000000000000
 37       0.000000000000
 38      -0.000000000000
 39      -0.000000000000
 40      -0.000000000000
 41      -0.000000000000
 42      -0.000000000000
 43       0.000000000000
 44       0.000000000000
 45       0.000000000000
 46       0.000000000000
 47       0.000040592132
 48       0.000000000000
 49      -0.000000000000
 50       0.000060511178
 51       0.000000000000
 52      -0.000000000000
 53       0.000000000000
 54      -0.000080048764
 55       0.000000000000
 Sym=     1a
 Ene= -7.09289629800754E-01
 Spin= Alpha
 Occup= 1.000000
  1      -0.000000000000
  2       0.000000000000
  3       0.000000000000
  4       0.000000000000
  5       0.000000000000
  6      -0.196850631592
  7       0.000000000000
  8      -0.000000000000
  9      -0.369672326889
 10       0.000000000000
 11      -0.000000000000
 12      -0.457649766127
 13       0.000000000000
 14       0.000000000000
 15      -0.211280379302
 16       0.000000000000
 17      -0.000000000000
 18       0.000000000000
 19      -0.000000000000
 20      -0.000000000000
 21      -0.000000000000
 22       0.000000000000
 23       0.000000000000
 24       0.000000000000
 25       0.000000000000
 26       0.000000000000
 27      -0.000000000000
 28       0.000000000000
 29      -0.000000000000
 30      -0.000000000000
 31      -0.000000000000
 32      -0.000000000000
 33      -0.000000000000
 34      -0.000700931107
 35      -0.000000000000
 36      -0.000000000000
 37       0.000000000000
 38       0.002714694503
 39      -0.000000000000
 40      -0.000000000000
 41      -0.001921009372
 42       0.000000000000
 43      -0.000000000000
 44      -0.000000000000
 45       0.007440037305
 46      -0.000000000000
 47       0.000000000000
 48      -0.000000000000
 49      -0.000000000000
 50      -0.000000000000
 51       0.000000000000
 52       0.000000000000
 53       0.000000000000
 54      -0.000000000000
 55       0.000000000000
 Sym=     1a
 Ene= -7.09289629800747E-01
 Spin= Alpha
 Occup= 1.000000
  1       0.000000000000
  2       0.000000000000
  3       0.000000000000
  4      -0.000000000000
  5       0.000000000000
  6      -0.000000000000
  7      -0.000000000000
  8       0.196850631592
  9       0.000000000000
 10       0.000000000000
 11       0.369672326889
 12       0.000000000000
 13       0.000000000000
 14       0.457649766127
 15      -0.000000000000
 16      -0.000000000000
 17       0.211280379302
 18       0.000000000000
 19      -0.000000000000
 20       0.000000000000
 21       0.000000000000
 22      -0.000000000000
 23       0.000000000000
 24       0.000000000000
 25      -0.000000000000
 26      -0.000000000000
 27      -0.000000000000
 28       0.000000000000
 29       0.000000000000
 30      -0.000000000000
 31      -0.000000000000
 32       0.000000000000
 33       0.001716923556
 34       0.000000000000
 35       0.000000000000
 36       0.002216538780
 37      -0.000000000000
 38       0.000000000000
 39      -0.000000000000
 40       0.004705492752
 41      -0.000000000000
 42       0.000000000000
 43       0.006074765021
 44      -0.000000000000
 45      -0.000000000000
 46       0.000000000000
 47       0.000000000000
 48      -0.000000000000
 49      -0.000000000000
 50      -0.000000000000
 51       0.000000000000
 52       0.000000000000
 53      -0.000000000000
 54      -0.000000000000
 55       0.000000000000
 Sym=     1a
 Ene= -6.09897854518834E-01
 Spin= Alpha
 Occup= 1.000000
  1       0.000000000000
  2      -0.000000000000
  3      -0.000000000000
  4      -0.000000000000
  5       0.000000000000
  6       0.000000000000
  7      -0.193413757029
  8      -0.000000000000
  9       0.000000000000
 10      -0.357779403677
 11      -0.000000000000
 12       0.000000000000
 13      -0.444437154883
 14       0.000000000000
 15       0.000000000000
 16      -0.248381537072
 17      -0.000000000000
 18      -0.000000000000
 19      -0.000000000000
 20      -0.000000000000
 21       0.000000000000
 22       0.000000000000
 23      -0.000000000000
 24       0.000000000000
 25       0.000000000000
 26       0.000000000000
 27      -0.000000000000
 28      -0.000000000000
 29      -0.000000000000
 30      -0.000000000000
 31      -0.000000000000
 32      -0.000000000000
 33      -0.000000000000
 34      -0.000000000000
 35      -0.002040804088
 36       0.000000000000
 37       0.000000000000
 38      -0.000000000000
 39       0.002634666748
 40       0.000000000000
 41       0.000000000000
 42      -0.005968456839
 43      -0.000000000000
 44       0.000000000000
 45       0.000000000000
 46       0.007705244646
 47      -0.000000000000
 48      -0.000000000000
 49      -0.000000000000
 50      -0.000000000000
 51       0.000000000000
 52       0.000000000000
 53      -0.000000000000
 54      -0.000000000000
 55       0.000000000000
 Sym=     1a
 Ene= 5.19333265815421E-01
 Spin= Alpha
 Occup= 0.000000
  1       0.000000000000
  2      -0.000000000000
  3       0.000000000000
  4      -0.000000000000
  5       0.000000000000
  6       0.000000000000
  7       0.000000000000
  8       0.127572281136
  9      -0.000000000000
 10      -0.000000000000
 11       0.100942720861
 12      -0.000000000000
 13      -0.000000000000
 14       0.740347008263
 15       0.000000000000
 16       0.000000000000
 17      -1.298856000796
 18       0.000000000000
 19       0.000000000000
 20      -0.000000000000
 21      -0.000000000000
 22      -0.000000000000
 23       0.000000000000
 24      -0.000000000000
 25      -0.000000000000
 26      -0.000000000000
 27       0.000000000000
 28       0.000000000000
 29      -0.000000000000
 30       0.000000000000
 31       0.000000000000
 32      -0.000000000000
 33       0.001270885285
 34      -0.000000000000
 35       0.000000000000
 36       0.001640705848
 37      -0.000000000000
 38       0.000000000000
 39       0.000000000000
 40      -0.000051349856
 41       0.000000000000
 42       0.000000000000
 43      -0.000066292379
 44      -0.000000000000
 45      -0.000000000000
 46       0.000000000000
 47      -0.000000000000
 48      -0.000000000000
 49      -0.000000000000
 50       0.000000000000
 51      -0.000000000000
 52      -0.000000000000
 53       0.000000000000
 54       0.000000000000
 55       0.000000000000
 Sym=     1a
 Ene= 5.19333265815430E-01
 Spin= Alpha
 Occup= 0.000000
  1       0.000000000000
  2       0.000000000000
  3       0.000000000000
  4       0.000000000000
  5       0.000000000000
  6       0.127572281136
  7       0.000000000000
  8       0.000000000000
  9       0.100942720861
 10      -0.000000000000
 11       0.000000000000
 12       0.740347008263
 13      -0.000000000000
 14      -0.000000000000
 15      -1.298856000796
 16       0.000000000000
 17       0.000000000000
 18      -0.000000000000
 19       0.000000000000
 20       0.000000000000
 21       0.000000000000
 22      -0.000000000000
 23      -0.000000000000
 24       0.000000000000
 25       0.000000000000
 26       0.000000000000
 27      -0.000000000000
 28      -0.000000000000
 29      -0.000000000000
 30       0.000000000000
 31       0.000000000000
 32      -0.000000000000
 33      -0.000000000000
 34       0.000518836745
 35       0.000000000000
 36      -0.000000000000
 37      -0.000000000000
 38      -0.002009446073
 39      -0.000000000000
 40       0.000000000000
 41      -0.000020963491
 42       0.000000000000
 43      -0.000000000000
 44       0.000000000000
 45       0.000081191251
 46      -0.000000000000
 47      -0.000000000000
 48      -0.000000000000
 49       0.000000000000
 50       0.000000000000
 51      -0.000000000000
 52      -0.000000000000
 53      -0.000000000000
 54       0.000000000000
 55       0.000000000000
 Sym=     1a
 Ene= 5.53409432882738E-01
 Spin= Alpha
 Occup= 0.000000
  1       0.000000000000
  2       0.000000000000
  3       0.000000000000
  4       0.000000000000
  5      -0.000000000000
  6       0.000000000000
  7       0.133053347826
  8       0.000000000000
  9      -0.000000000000
 10       0.099645082015
 11       0.000000000000
 12      -0.000000000000
 13       0.772916081166
 14      -0.000000000000
 15       0.000000000000
 16      -1.298960375120
 17       0.000000000000
 18       0.000000000000
 19       0.000000000000
 20       0.000000000000
 21      -0.000000000000
 22       0.000000000000
 23      -0.000000000000
 24      -0.000000000000
 25      -0.000000000000
 26      -0.000000000000
 27       0.000000000000
 28       0.000000000000
 29       0.000000000000
 30       0.000000000000
 31       0.000000000000
 32      -0.000000000000
 33      -0.000000000000
 34       0.000000000000
 35       0.001600371853
 36       0.000000000000
 37      -0.000000000000
 38      -0.000000000000
 39      -0.002066071178
 40      -0.000000000000
 41      -0.000000000000
 42       0.000249942127
 43       0.000000000000
 44       0.000000000000
 45       0.000000000000
 46      -0.000322673898
 47      -0.000000000000
 48      -0.000000000000
 49       0.000000000000
 50       0.000000000000
 51       0.000000000000
 52      -0.000000000000
 53      -0.000000000000
 54       0.000000000000
 55       0.000000000000
 Sym=     1a
 Ene= 5.72609227059758E-01
 Spin= Alpha
 Occup= 0.000000
  1      -0.074561784141
  2       0.097475726613
  3      -0.167201427530
  4       1.885382292442
  5      -1.947587551957
  6      -0.000000000000
  7       0.000000000000
  8       0.000000000000
  9       0.000000000000
 10      -0.000000000000
 11      -0.000000000000
 12      -0.000000000000
 13      -0.000000000000
 14      -0.000000000000
 15      -0.000000000000
 16       0.000000000000
 17       0.000000000000
 18       0.000062655438
 19       0.000000000000
 20       0.000000000000
 21       0.000108522402
 22       0.000000000000
 23       0.006474901122
 24      -0.000000000000
 25      -0.000000000000
 26       0.011214857718
 27       0.000000000000
 28      -0.011898122557
 29       0.000000000000
 30      -0.000000000000
 31      -0.020608152783
 32      -0.000000000000
 33      -0.000000000000
 34       0.000000000000
 35       0.000000000000
 36      -0.000000000000
 37      -0.000000000000
 38       0.000000000000
 39      -0.000000000000
 40       0.000000000000
 41      -0.000000000000
 42       0.000000000000
 43       0.000000000000
 44       0.000000000000
 45      -0.000000000000
 46      -0.000000000000
 47      -0.000000260781
 48       0.000000000000
 49       0.000000000000
 50      -0.000000388750
 51      -0.000000000000
 52      -0.000000000000
 53      -0.000000000000
 54       0.000000514267
 55       0.000000000000
 Sym=     1a
 Ene= 1.15330296988280E+00
 Spin= Alpha
 Occup= 0.000000
  1      -0.000000000000
  2      -0.000000000000
  3       0.000000000000
  4       0.000000000000
  5      -0.000000000000
  6       0.000000000000
  7       0.000000000000
  8      -0.000000000000
  9      -0.000000000000
 10      -0.000000000000
 11       0.000000000000
 12      -0.000000000000
 13       0.000000000000
 14      -0.000000000000
 15       0.000000000000
 16      -0.000000000000
 17       0.000000000000
 18      -0.000000000000
 19       0.052374128535
 20      -0.000000000000
 21      -0.000000000000
 22       0.000000000000
 23       0.000000000000
 24      -0.098699940922
 25       0.000000000000
 26       0.000000000000
 27      -0.000000000000
 28      -0.000000000000
 29       1.049735820606
 30      -0.000000000000
 31      -0.000000000000
 32      -0.000000000000
 33      -0.000000000000
 34      -0.000000000000
 35       0.000000000000
 36       0.000000000000
 37       0.000000000000
 38      -0.000000000000
 39      -0.000000000000
 40       0.000000000000
 41       0.000000000000
 42      -0.000000000000
 43      -0.000000000000
 44       0.000000000000
 45       0.000000000000
 46       0.000000000000
 47      -0.000000000000
 48       0.000845323187
 49       0.000000000000
 50      -0.000000000000
 51      -0.000000000000
 52      -0.002236514930
 53       0.000000000000
 54       0.000000000000
 55       0.000000000000
 Sym=     1a
 Ene= 1.15330296988304E+00
 Spin= Alpha
 Occup= 0.000000
  1      -0.000000000000
  2       0.000000000000
  3       0.000000000000
  4      -0.000000000000
  5       0.000000000000
  6      -0.000000000000
  7       0.000000000000
  8       0.000000000000
  9       0.000000000000
 10      -0.000000000000
 11      -0.000000000000
 12      -0.000000000000
 13      -0.000000000000
 14      -0.000000000000
 15       0.000000000000
 16       0.000000000000
 17       0.000000000000
 18       0.045357325812
 19      -0.000000000000
 20       0.000000000000
 21      -0.026187064267
 22       0.000000000000
 23      -0.085476656191
 24      -0.000000000000
 25      -0.000000000000
 26       0.049349970461
 27       0.000000000000
 28       0.909097887908
 29       0.000000000000
 30       0.000000000000
 31      -0.524867910303
 32      -0.000000000000
 33       0.000000000000
 34      -0.000000000000
 35       0.000000000000
 36       0.000000000000
 37       0.000000000000
 38       0.000000000000
 39       0.000000000000
 40       0.000000000000
 41       0.000000000000
 42      -0.000000000000
 43       0.000000000000
 44       0.000000000000
 45      -0.000000000000
 46       0.000000000000
 47       0.001336573315
 48      -0.000000000000
 49       0.000000000000
 50       0.001195467516
 51      -0.000000000000
 52      -0.000000000000
 53      -0.000000000000
 54       0.001581454874
 55       0.000000000000
 Sym=     1a
 Ene= 1.18935109845072E+00
 Spin= Alpha
 Occup= 0.000000
  1       0.000000000000
  2       0.000000000000
  3       0.000000000000
  4      -0.000000000000
  5       0.000000000000
  6       0.000000000000
  7      -0.000000000000
  8      -0.000000000000
  9      -0.000000000000
 10       0.000000000000
 11       0.000000000000
 12       0.000000000000
 13       0.000000000000
 14      -0.000000000000
 15      -0.000000000000
 16      -0.000000000000
 17      -0.000000000000
 18      -0.000000000000
 19      -0.000000000000
 20       0.052995296816
 21      -0.000000000000
 22      -0.000000000000
 23       0.000000000000
 24       0.000000000000
 25      -0.106246383732
 26       0.000000000000
 27      -0.000000000000
 28      -0.000000000000
 29      -0.000000000000
 30       1.054003542330
 31      -0.000000000000
 32       0.000000000000
 33      -0.000000000000
 34      -0.000000000000
 35       0.000000000000
 36       0.000000000000
 37       0.000000000000
 38       0.000000000000
 39      -0.000000000000
 40       0.000000000000
 41       0.000000000000
 42      -0.000000000000
 43       0.000000000000
 44      -0.000000000000
 45      -0.000000000000
 46       0.000000000000
 47       0.000000000000
 48      -0.000000000000
 49       0.002524508834
 50       0.000000000000
 51       0.000000000000
 52       0.000000000000
 53      -0.002226407519
 54      -0.000000000000
 55       0.000000000000
 Sym=     1a
 Ene= 1.18935109845072E+00
 Spin= Alpha
 Occup= 0.000000
  1      -0.000000000000
  2       0.000000000000
  3      -0.000000000000
  4      -0.000000000000
  5      -0.000000000000
  6       0.000000000000
  7       0.000000000000
  8       0.000000000000
  9       0.000000000000
 10       0.000000000000
 11       0.000000000000
 12      -0.000000000000
 13      -0.000000000000
 14      -0.000000000000
 15      -0.000000000000
 16      -0.000000000000
 17      -0.000000000000
 18       0.000000000000
 19      -0.000000000000
 20      -0.000000000000
 21       0.000000000000
 22      -0.052995296816
 23      -0.000000000000
 24       0.000000000000
 25       0.000000000000
 26      -0.000000000000
 27       0.106246383732
 28       0.000000000000
 29      -0.000000000000
 30      -0.000000000000
 31       0.000000000000
 32      -1.054003542330
 33       0.000000000000
 34       0.000000000000
 35       0.000000000000
 36       0.000000000000
 37       0.000000000000
 38       0.000000000000
 39      -0.000000000000
 40       0.000000000000
 41      -0.000000000000
 42       0.000000000000
 43       0.000000000000
 44      -0.000000000000
 45       0.000000000000
 46       0.000000000000
 47      -0.000000000000
 48      -0.000000000000
 49       0.000000000000
 50      -0.000000000000
 51      -0.001190064877
 52      -0.000000000000
 53      -0.000000000000
 54       0.000000000000
 55       0.003148615708
 Sym=     1a
 Ene= 1.20227233933824E+00
 Spin= Alpha
 Occup= 0.000000
  1       0.005187285086
  2       0.013294323514
  3       0.026844121082
  4      -0.041335941719
  5       0.044302272625
  6      -0.000000000000
  7       0.000000000000
  8       0.000000000000
  9       0.000000000000
 10      -0.000000000000
 11      -0.000000000000
 12      -0.000000000000
 13      -0.000000000000
 14      -0.000000000000
 15       0.000000000000
 16       0.000000000000
 17       0.000000000000
 18      -0.026571160323
 19       0.000000000000
 20       0.000000000000
 21      -0.046022599696
 22       0.000000000000
 23       0.054471019136
 24      -0.000000000000
 25      -0.000000000000
 26       0.094346572683
 27      -0.000000000000
 28      -0.527608234119
 29       0.000000000000
 30       0.000000000000
 31      -0.913844267986
 32      -0.000000000000
 33       0.000000000000
 34      -0.000000000000
 35       0.000000000000
 36      -0.000000000000
 37       0.000000000000
 38       0.000000000000
 39       0.000000000000
 40       0.000000000000
 41       0.000000000000
 42      -0.000000000000
 43      -0.000000000000
 44       0.000000000000
 45      -0.000000000000
 46       0.000000000000
 47      -0.001379918692
 48      -0.000000000000
 49       0.000000000000
 50      -0.002057061333
 51       0.000000000000
 52      -0.000000000000
 53       0.000000000000
 54       0.002721236359
 55       0.000000000000
 Sym=     1a
 Ene= 2.53708078546710E+00
 Spin= Alpha
 Occup= 0.000000
  1      -0.000000000000
  2      -0.000000000000
  3      -0.000000000000
  4      -0.000000000000
  5       0.000000000000
  6      -0.000000000000
  7      -0.000000000000
  8       0.204013592410
  9       0.000000000000
 10       0.000000000000
 11       1.200552202503
 12       0.000000000000
 13       0.000000000000
 14      -1.818315717528
 15      -0.000000000000
 16      -0.000000000000
 17       0.759133310225
 18      -0.000000000000
 19      -0.000000000000
 20      -0.000000000000
 21       0.000000000000
 22      -0.000000000000
 23       0.000000000000
 24       0.000000000000
 25       0.000000000000
 26      -0.000000000000
 27      -0.000000000000
 28      -0.000000000000
 29       0.000000000000
 30      -0.000000000000
 31       0.000000000000
 32      -0.000000000000
 33       0.003445382575
 34       0.000000000000
 35       0.000000000000
 36       0.004447969778
 37      -0.000000000000
 38      -0.000000000000
 39       0.000000000000
 40      -0.015492113861
 41      -0.000000000000
 42      -0.000000000000
 43      -0.020000232994
 44       0.000000000000
 45       0.000000000000
 46       0.000000000000
 47       0.000000000000
 48       0.000000000000
 49       0.000000000000
 50      -0.000000000000
 51      -0.000000000000
 52       0.000000000000
 53      -0.000000000000
 54      -0.000000000000
 55       0.000000000000
 Sym=     1a
 Ene= 2.53708078546711E+00
 Spin= Alpha
 Occup= 0.000000
  1       0.000000000000
  2      -0.000000000000
  3      -0.000000000000
  4      -0.000000000000
  5      -0.000000000000
  6      -0.204013592410
  7      -0.000000000000
  8       0.000000000000
  9      -1.200552202503
 10      -0.000000000000
 11       0.000000000000
 12       1.818315717528
 13       0.000000000000
 14      -0.000000000000
 15      -0.759133310225
 16       0.000000000000
 17       0.000000000000
 18       0.000000000000
 19       0.000000000000
 20       0.000000000000
 21       0.000000000000
 22      -0.000000000000
 23      -0.000000000000
 24      -0.000000000000
 25      -0.000000000000
 26      -0.000000000000
 27       0.000000000000
 28       0.000000000000
 29      -0.000000000000
 30       0.000000000000
 31       0.000000000000
 32       0.000000000000
 33       0.000000000000
 34      -0.001406571546
 35       0.000000000000
 36       0.000000000000
 37      -0.000000000000
 38       0.005447628173
 39       0.000000000000
 40      -0.000000000000
 41       0.006324628999
 42       0.000000000000
 43      -0.000000000000
 44       0.000000000000
 45      -0.024495182786
 46      -0.000000000000
 47       0.000000000000
 48      -0.000000000000
 49       0.000000000000
 50      -0.000000000000
 51       0.000000000000
 52       0.000000000000
 53       0.000000000000
 54      -0.000000000000
 55       0.000000000000
 Sym=     1a
 Ene= 2.60669058358706E+00
 Spin= Alpha
 Occup= 0.000000
  1      -0.000000000000
  2      -0.000000000000
  3       0.000000000000
  4      -0.000000000000
  5      -0.000000000000
  6       0.000000000000
  7      -0.205385782593
  8       0.000000000000
  9      -0.000000000000
 10      -1.204369399251
 11       0.000000000000
 12       0.000000000000
 13       1.808958237650
 14      -0.000000000000
 15       0.000000000000
 16      -0.748073833339
 17       0.000000000000
 18       0.000000000000
 19       0.000000000000
 20       0.000000000000
 21      -0.000000000000
 22      -0.000000000000
 23      -0.000000000000
 24      -0.000000000000
 25      -0.000000000000
 26      -0.000000000000
 27       0.000000000000
 28       0.000000000000
 29       0.000000000000
 30       0.000000000000
 31       0.000000000000
 32       0.000000000000
 33       0.000000000000
 34       0.000000000000
 35      -0.004401173431
 36       0.000000000000
 37      -0.000000000000
 38       0.000000000000
 39       0.005681890467
 40      -0.000000000000
 41      -0.000000000000
 42       0.020314705630
 43       0.000000000000
 44       0.000000000000
 45      -0.000000000000
 46      -0.026226172196
 47      -0.000000000000
 48      -0.000000000000
 49       0.000000000000
 50      -0.000000000000
 51      -0.000000000000
 52      -0.000000000000
 53       0.000000000000
 54      -0.000000000000
 55       0.000000000000
 Sym=     1a
 Ene= 3.31735937929195E+00
 Spin= Alpha
 Occup= 0.000000
  1       0.000000000000
  2       0.000000000000
  3       0.000000000000
  4      -0.000000000000
  5       0.000000000000
  6      -0.000000000000
  7      -0.000000000000
  8       0.000000000000
  9       0.000000000000
 10      -0.000000000000
 11       0.000000000000
 12      -0.000000000000
 13       0.000000000000
 14      -0.000000000000
 15       0.000000000000
 16      -0.000000000000
 17       0.000000000000
 18      -0.000000000000
 19       0.000000000000
 20      -0.000000000000
 21       0.000000000000
 22      -0.000000000000
 23      -0.000000000000
 24       0.000000000000
 25      -0.000000000000
 26      -0.000000000000
 27      -0.000000000000
 28       0.000000000000
 29      -0.000000000000
 30       0.000000000000
 31       0.000000000000
 32       0.000000000000
 33       0.073804180535
 34       0.000000000000
 35       0.000000000000
 36      -0.057168472419
 37      -0.000000000000
 38      -0.000000000000
 39      -0.000000000000
 40      -0.825161968829
 41      -0.000000000000
 42      -0.000000000000
 43       0.639167712642
 44       0.000000000000
 45      -0.000000000000
 46      -0.000000000000
 47       0.000000000000
 48       0.000000000000
 49       0.000000000000
 50       0.000000000000
 51      -0.000000000000
 52       0.000000000000
 53      -0.000000000000
 54       0.000000000000
 55       0.000000000000
 Sym=     1a
 Ene= 3.31735937929195E+00
 Spin= Alpha
 Occup= 0.000000
  1      -0.000000000000
  2      -0.000000000000
  3      -0.000000000000
  4       0.000000000000
  5      -0.000000000000
  6      -0.000000000000
  7       0.000000000000
  8      -0.000000000000
  9      -0.000000000000
 10       0.000000000000
 11       0.000000000000
 12       0.000000000000
 13       0.000000000000
 14      -0.000000000000
 15      -0.000000000000
 16       0.000000000000
 17       0.000000000000
 18      -0.000000000000
 19       0.000000000000
 20      -0.000000000000
 21      -0.000000000000
 22      -0.000000000000
 23       0.000000000000
 24       0.000000000000
 25       0.000000000000
 26      -0.000000000000
 27      -0.000000000000
 28       0.000000000000
 29      -0.000000000000
 30      -0.000000000000
 31       0.000000000000
 32       0.000000000000
 33       0.000000000000
 34       0.090391291598
 35       0.000000000000
 36      -0.000000000000
 37      -0.000000000000
 38       0.023338931133
 39      -0.000000000000
 40      -0.000000000000
 41      -1.010612889393
 42      -0.000000000000
 43       0.000000000000
 44      -0.000000000000
 45      -0.260939126004
 46       0.000000000000
 47      -0.000000000000
 48      -0.000000000000
 49      -0.000000000000
 50       0.000000000000
 51       0.000000000000
 52      -0.000000000000
 53       0.000000000000
 54       0.000000000000
 55       0.000000000000
 Sym=     1a
 Ene= 3.35347343165947E+00
 Spin= Alpha
 Occup= 0.000000
  1      -0.000000000000
  2      -0.000000000000
  3       0.000000000000
  4      -0.000000000000
  5      -0.000000000000
  6       0.000000000000
  7       0.000000000000
  8       0.000000000000
  9       0.000000000000
 10      -0.000000000000
 11       0.000000000000
 12       0.000000000000
 13       0.000000000000
 14       0.000000000000
 15      -0.000000000000
 16      -0.000000000000
 17      -0.000000000000
 18      -0.000000000000
 19       0.000000000000
 20       0.000000000000
 21       0.000000000000
 22      -0.000000000000
 23      -0.000000000000
 24       0.000000000000
 25      -0.000000000000
 26      -0.000000000000
 27       0.000000000000
 28      -0.000000000000
 29      -0.000000000000