[Molden Format]
[Title]
 Molden file created by orca_2mkl for BaseName=mol

[Atoms] AU
Zn   1  30          0.0000000000         0.0000000000         0.0000000000 
[GTO]
  1 0
s  11 1.0 
  5742307.1507000001         0.7610648204
   861450.7879000000         1.4227291951
   196346.0586600000         2.4627460329
    55682.8707370000         4.0297896478
    18183.9023940000         6.2971606909
     6569.6448019000         9.4033252546
     2563.5613276000        13.2497043140
     1063.1147176000        17.0151157764
      462.8977107800        18.5119331085
      209.5282104900        14.7385027080
       97.2407879910         6.4483734334
s   4 1.0 
     1929.2689992000         1.5410663796
      598.0712230700         6.3103317635
      229.6966733600        14.1322686217
       99.4168192280        14.2580591822
s   1 1.0 
       44.2411014210        12.2258634299
s   1 1.0 
       21.1943671130         7.0400449434
s   1 1.0 
       10.1587315970         4.0554561204
s   1 1.0 
        4.3746176158         2.1558332472
s   1 1.0 
        2.0901489071         1.2389192837
s   1 1.0 
        0.9186913644         0.6687862226
s   1 1.0 
        0.1927866061         0.2073565391
s   1 1.0 
        0.0873299152         0.1144939058
s   1 1.0 
        0.0375522171         0.0607976481
p   9 1.0 
    10690.4451070000        26.6111232284
     2532.3159340000        38.7047573141
      821.9429500300        53.0235488770
      313.4275780000        65.7216215840
      132.1831424700        70.3632104299
       59.6205543870        59.6356403685
       28.0194888680        35.2817253320
       13.5117048500        11.3891492912
        6.4053711253         1.2574416600
p   5 1.0 
       89.9811319180        -1.9318326735
       32.2417671060        -2.6431672451
        6.3809448581         3.3660180238
        2.9477928353         2.6424334875
        1.3200854955         0.7779471232
p   1 1.0 
        0.5442467444         0.6663231278
p   1 1.0 
        0.2579997180         0.2620982535
p   1 1.0 
        0.0928631924         0.0730709241
p   1 1.0 
        0.0340593414         0.0208562102
d   6 1.0 
      305.2229893700       101.4183432213
       91.4682732020       106.1174975843
       34.9869859680        90.8922198067
       14.8494151870        61.3572078737
        6.6858545707        30.5968330327
        3.0309412620        10.3247673465
d   1 1.0 
        1.3355050671         4.7298762561
d   1 1.0 
        0.5588317639         1.0297030033
d   1 1.0 
        0.2118079929         0.1885251031
d   1 1.0 
        0.0830000000         0.0365895228
f   1 1.0 
        8.0200000000       617.1523795802
f   1 1.0 
        2.6140000000        49.5379056346
f   1 1.0 
        0.8360000000         3.8103441550
g   1 1.0 
        3.6170000000       225.9060420320

[5D]
[9G]
[MO]
 Sym=     1a
 Ene= -3.53305722238645E+02
 Spin= Alpha
 Occup= 2.000000
  1       0.954378654485
  2      -0.000177779797
  3       0.067680433490
  4      -0.001114875780
  5       0.001752437475
  6      -0.000814020901
  7       0.000365774208
  8      -0.000136626912
  9       0.000045610626
 10      -0.000034515204
 11       0.000010939744
 12      -0.000000000000
 13      -0.000000000000
 14       0.000000000000
 15       0.000000000000
 16       0.000000000000
 17      -0.000000000000
 18      -0.000000000000
 19       0.000000000000
 20      -0.000000000000
 21       0.000000000000
 22      -0.000000000000
 23       0.000000000000
 24      -0.000000000000
 25       0.000000000000
 26      -0.000000000000
 27       0.000000000000
 28      -0.000000000000
 29       0.000000000000
 30       0.000000000000
 31      -0.000000000000
 32      -0.000000000000
 33      -0.000000000000
 34       0.000000000000
 35      -0.000000000000
 36      -0.000000000000
 37       0.000000000000
 38       0.000000000000
 39       0.000000000000
 40       0.000000000000
 41       0.000000000000
 42      -0.000000000000
 43      -0.000000000000
 44       0.000000000000
 45      -0.000000000000
 46       0.000000000000
 47       0.000000000000
 48       0.000000000000
 49      -0.000000000000
 50       0.000000000000
 51       0.000000000000
 52       0.000000000000
 53      -0.000000000000
 54      -0.000000000000
 55       0.000000000000
 56       0.000000000000
 57       0.000000000000
 58      -0.000000000000
 59      -0.000000000000
 60       0.000000000000
 61      -0.000000000000
 62       0.000000000000
 63       0.000000000000
 64       0.000000000000
 65       0.000000000000
 66       0.000000000000
 67       0.000000000000
 68       0.000000000000
 69       0.000000000000
 70       0.000000000000
 71      -0.000000000000
 72      -0.000000000000
 73      -0.000000000000
 74       0.000000000000
 75      -0.000000000000
 76       0.000000000000
 77      -0.000000000000
 78      -0.000000000000
 79       0.000000000000
 80       0.000000000000
 81      -0.000000000000
 82       0.000000000000
 83      -0.000000000000
 84       0.000000000000
 Sym=     1a
 Ene= -4.43623978095829E+01
 Spin= Alpha
 Occup= 2.000000
  1      -0.297746395346
  2      -0.180199743331
  3       0.049440913703
  4       0.531676754564
  5       0.496883176577
  6       0.083828693678
  7      -0.003740662330
  8       0.002387029543
  9      -0.000492408843
 10       0.000375245635
 11      -0.000118672485
 12       0.000000000000
 13       0.000000000000
 14      -0.000000000000
 15      -0.000000000000
 16      -0.000000000000
 17       0.000000000000
 18       0.000000000000
 19      -0.000000000000
 20       0.000000000000
 21      -0.000000000000
 22       0.000000000000
 23      -0.000000000000
 24       0.000000000000
 25      -0.000000000000
 26       0.000000000000
 27      -0.000000000000
 28       0.000000000000
 29      -0.000000000000
 30       0.000000000000
 31      -0.000000000000
 32      -0.000000000000
 33      -0.000000000000
 34       0.000000000000
 35      -0.000000000000
 36       0.000000000000
 37       0.000000000000
 38       0.000000000000
 39       0.000000000000
 40       0.000000000000
 41      -0.000000000000
 42       0.000000000000
 43      -0.000000000000
 44       0.000000000000
 45      -0.000000000000
 46      -0.000000000000
 47      -0.000000000000
 48       0.000000000000
 49       0.000000000000
 50       0.000000000000
 51       0.000000000000
 52      -0.000000000000
 53      -0.000000000000
 54      -0.000000000000
 55       0.000000000000
 56      -0.000000000000
 57       0.000000000000
 58       0.000000000000
 59       0.000000000000
 60      -0.000000000000
 61       0.000000000000
 62      -0.000000000000
 63       0.000000000000
 64      -0.000000000000
 65      -0.000000000000
 66      -0.000000000000
 67      -0.000000000000
 68      -0.000000000000
 69      -0.000000000000
 70      -0.000000000000
 71       0.000000000000
 72       0.000000000000
 73      -0.000000000000
 74       0.000000000000
 75       0.000000000000
 76       0.000000000000
 77       0.000000000000
 78       0.000000000000
 79      -0.000000000000
 80       0.000000000000
 81      -0.000000000000
 82       0.000000000000
 83      -0.000000000000
 84       0.000000000000
 Sym=     1a
 Ene= -3.89255860233864E+01
 Spin= Alpha
 Occup= 2.000000
  1       0.000000000000
  2       0.000000000000
  3      -0.000000000000
  4      -0.000000000000
  5      -0.000000000000
  6       0.000000000000
  7       0.000000000000
  8       0.000000000000
  9      -0.000000000000
 10      -0.000000000000
 11       0.000000000000
 12       0.000000000000
 13       0.000000000000
 14       0.997857775751
 15       0.000000000000
 16      -0.000000000000
 17       0.005934133500
 18      -0.000000000000
 19       0.000000000000
 20      -0.000605174070
 21       0.000000000000
 22       0.000000000000
 23       0.000351354766
 24      -0.000000000000
 25      -0.000000000000
 26      -0.000104748050
 27      -0.000000000000
 28      -0.000000000000
 29       0.000030455413
 30       0.000000000000
 31      -0.000000000000
 32       0.000000000000
 33      -0.000000000000
 34       0.000000000000
 35       0.000000000000
 36      -0.000000000000
 37       0.000000000000
 38       0.000000000000
 39      -0.000000000000
 40      -0.000000000000
 41       0.000000000000
 42      -0.000000000000
 43       0.000000000000
 44       0.000000000000
 45       0.000000000000
 46      -0.000000000000
 47       0.000000000000
 48      -0.000000000000
 49      -0.000000000000
 50      -0.000000000000
 51       0.000000000000
 52      -0.000000000000
 53      -0.000000000000
 54      -0.000000000000
 55       0.000000000001
 56      -0.000000000000
 57       0.000000000000
 58       0.000000000000
 59       0.000000000000
 60      -0.000000000000
 61      -0.000000000000
 62       0.000000000000
 63       0.000000000000
 64      -0.000000000000
 65      -0.000000000000
 66      -0.000000000000
 67      -0.000000000000
 68       0.000000000000
 69      -0.000000000000
 70       0.000000000000
 71      -0.000000000000
 72       0.000000000000
 73       0.000000000000
 74      -0.000000000000
 75       0.000000000000
 76       0.000000000000
 77      -0.000000000000
 78       0.000000000000
 79      -0.000000000000
 80      -0.000000000000
 81       0.000000000000
 82       0.000000000000
 83      -0.000000000000
 84       0.000000000000
 Sym=     1a
 Ene= -3.89255860233863E+01
 Spin= Alpha
 Occup= 2.000000
  1      -0.000000000000
  2      -0.000000000000
  3       0.000000000000
  4       0.000000000000
  5       0.000000000000
  6      -0.000000000000
  7      -0.000000000000
  8      -0.000000000000
  9       0.000000000000
 10       0.000000000000
 11      -0.000000000000
 12       0.997857775751
 13       0.000000000000
 14       0.000000000000
 15       0.005934133500
 16      -0.000000000000
 17       0.000000000000
 18      -0.000605174070
 19      -0.000000000000
 20      -0.000000000000
 21       0.000351354766
 22      -0.000000000000
 23       0.000000000000
 24      -0.000104748050
 25       0.000000000000
 26      -0.000000000000
 27       0.000030455413
 28       0.000000000000
 29       0.000000000000
 30      -0.000000000000
 31      -0.000000000000
 32      -0.000000000000
 33      -0.000000000000
 34      -0.000000000000
 35       0.000000000000
 36       0.000000000000
 37      -0.000000000000
 38       0.000000000000
 39      -0.000000000000
 40      -0.000000000000
 41      -0.000000000000
 42       0.000000000000
 43       0.000000000000
 44       0.000000000000
 45      -0.000000000000
 46       0.000000000000
 47      -0.000000000000
 48      -0.000000000000
 49      -0.000000000000
 50      -0.000000000000
 51      -0.000000000000
 52       0.000000000000
 53       0.000000000000
 54      -0.000000000000
 55      -0.000000000000
 56      -0.000000000001
 57       0.000000000000
 58       0.000000000000
 59      -0.000000000000
 60      -0.000000000001
 61      -0.000000000000
 62       0.000000000000
 63      -0.000000000000
 64       0.000000000000
 65       0.000000000000
 66       0.000000000000
 67      -0.000000000000
 68       0.000000000000
 69      -0.000000000000
 70       0.000000000000
 71       0.000000000000
 72      -0.000000000000
 73      -0.000000000000
 74       0.000000000000
 75       0.000000000000
 76      -0.000000000000
 77       0.000000000000
 78       0.000000000000
 79       0.000000000000
 80       0.000000000000
 81      -0.000000000000
 82      -0.000000000000
 83       0.000000000000
 84       0.000000000000
 Sym=     1a
 Ene= -3.89255860233863E+01
 Spin= Alpha
 Occup= 2.000000
  1       0.000000000000
  2       0.000000000000
  3      -0.000000000000
  4      -0.000000000000
  5      -0.000000000000
  6       0.000000000000
  7      -0.000000000000
  8       0.000000000000
  9       0.000000000000
 10      -0.000000000000
 11       0.000000000000
 12      -0.000000000000
 13      -0.997857775751
 14      -0.000000000000
 15       0.000000000000
 16      -0.005934133500
 17       0.000000000000
 18      -0.000000000000
 19       0.000605174070
 20      -0.000000000000
 21       0.000000000000
 22      -0.000351354766
 23      -0.000000000000
 24      -0.000000000000
 25       0.000104748050
 26       0.000000000000
 27       0.000000000000
 28      -0.000030455413
 29       0.000000000000
 30      -0.000000000000
 31       0.000000000000
 32       0.000000000000
 33      -0.000000000000
 34       0.000000000000
 35      -0.000000000000
 36      -0.000000000000
 37      -0.000000000000
 38      -0.000000000000
 39      -0.000000000000
 40      -0.000000000000
 41       0.000000000000
 42       0.000000000000
 43      -0.000000000000
 44       0.000000000000
 45      -0.000000000000
 46      -0.000000000000
 47       0.000000000000
 48       0.000000000000
 49       0.000000000000
 50      -0.000000000000
 51       0.000000000000
 52      -0.000000000000
 53      -0.000000000000
 54      -0.000000000000
 55      -0.000000000000
 56      -0.000000000000
 57       0.000000000001
 58       0.000000000000
 59       0.000000000000
 60       0.000000000000
 61      -0.000000000001
 62       0.000000000000
 63      -0.000000000000
 64       0.000000000000
 65       0.000000000000
 66      -0.000000000000
 67       0.000000000000
 68      -0.000000000000
 69       0.000000000000
 70       0.000000000000
 71      -0.000000000000
 72      -0.000000000000
 73      -0.000000000000
 74      -0.000000000000
 75       0.000000000000
 76      -0.000000000000
 77       0.000000000000
 78       0.000000000000
 79       0.000000000000
 80      -0.000000000000
 81      -0.000000000000
 82      -0.000000000000
 83       0.000000000000
 84       0.000000000000
 Sym=     1a
 Ene= -5.63778386593907E+00
 Spin= Alpha
 Occup= 2.000000
  1       0.111980311024
  2       0.080627549488
  3      -0.019738732475
  4      -0.335697656397
  5      -0.451985712553
  6       0.186081185172
  7       0.721811596410
  8       0.364998054923
  9       0.013608505420
 10      -0.006200256536
 11       0.001647698752
 12      -0.000000000000
 13      -0.000000000000
 14       0.000000000000
 15       0.000000000000
 16       0.000000000000
 17      -0.000000000000
 18      -0.000000000000
 19       0.000000000000
 20      -0.000000000000
 21       0.000000000000
 22      -0.000000000000
 23       0.000000000000
 24      -0.000000000000
 25       0.000000000000
 26      -0.000000000000
 27       0.000000000000
 28      -0.000000000000
 29       0.000000000000
 30       0.000000000000
 31       0.000000000000
 32       0.000000000000
 33      -0.000000000000
 34      -0.000000000000
 35      -0.000000000000
 36       0.000000000000
 37       0.000000000000
 38       0.000000000000
 39       0.000000000000
 40       0.000000000000
 41       0.000000000000
 42      -0.000000000000
 43       0.000000000000
 44      -0.000000000000
 45      -0.000000000000
 46       0.000000000000
 47       0.000000000000
 48      -0.000000000000
 49       0.000000000000
 50       0.000000000000
 51      -0.000000000000
 52      -0.000000000000
 53      -0.000000000000
 54       0.000000000000
 55      -0.000000000000
 56       0.000000000000
 57       0.000000000000
 58       0.000000000000
 59       0.000000000000
 60       0.000000000000
 61       0.000000000000
 62      -0.000000000000
 63      -0.000000000000
 64      -0.000000000000
 65       0.000000000000
 66       0.000000000000
 67      -0.000000000000
 68      -0.000000000000
 69       0.000000000000
 70       0.000000000000
 71      -0.000000000000
 72      -0.000000000000
 73      -0.000000000000
 74       0.000000000000
 75       0.000000000000
 76       0.000000000001
 77       0.000000000000
 78      -0.000000000000
 79      -0.000000000000
 80       0.000000000000
 81       0.000000000000
 82      -0.000000000000
 83      -0.000000000001
 84       0.000000000000
 Sym=     1a
 Ene= -3.83933623055113E+00
 Spin= Alpha
 Occup= 2.000000
  1      -0.000000000000
  2      -0.000000000000
  3       0.000000000000
  4       0.000000000000
  5       0.000000000000
  6      -0.000000000000
  7      -0.000000000000
  8      -0.000000000000
  9      -0.000000000000
 10       0.000000000000
 11      -0.000000000000
 12       0.000000000000
 13      -0.000000000000
 14      -0.380190311473
 15       0.000000000000
 16       0.000000000000
 17       1.013646733761
 18      -0.000000000000
 19      -0.000000000000
 20       0.091618496030
 21       0.000000000000
 22       0.000000000000
 23      -0.001846859405
 24      -0.000000000000
 25      -0.000000000000
 26       0.002389714594
 27      -0.000000000000
 28       0.000000000000
 29      -0.000552802143
 30      -0.000000000000
 31       0.000000000000
 32      -0.000000000000
 33      -0.000000000000
 34       0.000000000000
 35       0.000000000000
 36      -0.000000000000
 37       0.000000000000
 38       0.000000000000
 39      -0.000000000000
 40      -0.000000000000
 41       0.000000000000
 42      -0.000000000000
 43       0.000000000000
 44       0.000000000000
 45       0.000000000000
 46      -0.000000000000
 47       0.000000000000
 48       0.000000000000
 49      -0.000000000000
 50       0.000000000000
 51      -0.000000000000
 52       0.000000000000
 53      -0.000000000000
 54      -0.000000000000
 55       0.000000000004
 56       0.000000000000
 57      -0.000000000000
 58       0.000000000000
 59       0.000000000000
 60       0.000000000000
 61      -0.000000000000
 62       0.000000000007
 63      -0.000000000000
 64      -0.000000000000
 65       0.000000000000
 66      -0.000000000000
 67      -0.000000000000
 68       0.000000000000
 69      -0.000000000007
 70      -0.000000000000
 71       0.000000000000
 72      -0.000000000000
 73       0.000000000000
 74       0.000000000000
 75      -0.000000000000
 76       0.000000000000
 77       0.000000000000
 78      -0.000000000000
 79      -0.000000000000
 80      -0.000000000000
 81      -0.000000000000
 82       0.000000000000
 83       0.000000000000
 84       0.000000000000
 Sym=     1a
 Ene= -3.83933623055110E+00
 Spin= Alpha
 Occup= 2.000000
  1      -0.000000000000
  2      -0.000000000000
  3       0.000000000000
  4       0.000000000000
  5       0.000000000000
  6      -0.000000000000
  7      -0.000000000000
  8      -0.000000000000
  9       0.000000000000
 10       0.000000000000
 11      -0.000000000000
 12       0.380190311473
 13       0.000000000000
 14      -0.000000000000
 15      -1.013646733761
 16      -0.000000000000
 17      -0.000000000000
 18      -0.091618496030
 19       0.000000000000
 20      -0.000000000000
 21       0.001846859405
 22       0.000000000000
 23      -0.000000000000
 24      -0.002389714594
 25       0.000000000000
 26       0.000000000000
 27       0.000552802143
 28       0.000000000000
 29      -0.000000000000
 30       0.000000000000
 31      -0.000000000000
 32      -0.000000000000
 33       0.000000000000
 34      -0.000000000000
 35       0.000000000000
 36       0.000000000000
 37       0.000000000000
 38       0.000000000000
 39       0.000000000000
 40       0.000000000000
 41      -0.000000000000
 42      -0.000000000000
 43       0.000000000000
 44      -0.000000000000
 45       0.000000000000
 46      -0.000000000000
 47       0.000000000000
 48      -0.000000000000
 49       0.000000000000
 50       0.000000000000
 51      -0.000000000000
 52      -0.000000000000
 53       0.000000000000
 54       0.000000000000
 55       0.000000000000
 56       0.000000000002
 57      -0.000000000000
 58      -0.000000000000
 59      -0.000000000000
 60       0.000000000003
 61       0.000000000000
 62      -0.000000000000
 63       0.000000000004
 64       0.000000000000
 65      -0.000000000000
 66       0.000000000000
 67       0.000000000006
 68      -0.000000000000
 69       0.000000000000
 70      -0.000000000004
 71      -0.000000000000
 72       0.000000000000
 73      -0.000000000000
 74      -0.000000000005
 75      -0.000000000000
 76       0.000000000000
 77       0.000000000000
 78      -0.000000000000
 79      -0.000000000000
 80       0.000000000000
 81      -0.000000000000
 82      -0.000000000000
 83      -0.000000000000
 84       0.000000000000
 Sym=     1a
 Ene= -3.83933623055108E+00
 Spin= Alpha
 Occup= 2.000000
  1      -0.000000000000
  2      -0.000000000000
  3      -0.000000000000
  4       0.000000000000
  5       0.000000000000
  6      -0.000000000000
  7      -0.000000000000
  8      -0.000000000000
  9       0.000000000000
 10       0.000000000000
 11      -0.000000000000
 12       0.000000000000
 13       0.380190311473
 14       0.000000000000
 15      -0.000000000000
 16      -1.013646733761
 17      -0.000000000000
 18       0.000000000000
 19      -0.091618496030
 20      -0.000000000000
 21      -0.000000000000
 22       0.001846859405
 23       0.000000000000
 24       0.000000000000
 25      -0.002389714594
 26      -0.000000000000
 27       0.000000000000
 28       0.000552802143
 29       0.000000000000
 30      -0.000000000000
 31      -0.000000000000
 32      -0.000000000000
 33      -0.000000000000
 34       0.000000000000
 35      -0.000000000000
 36       0.000000000000
 37       0.000000000000
 38       0.000000000000
 39       0.000000000000
 40      -0.000000000000
 41      -0.000000000000
 42       0.000000000000
 43       0.000000000000
 44       0.000000000000
 45      -0.000000000000
 46       0.000000000000
 47      -0.000000000000
 48      -0.000000000000
 49       0.000000000000
 50      -0.000000000000
 51      -0.000000000000
 52       0.000000000000
 53       0.000000000000
 54       0.000000000000
 55       0.000000000000
 56       0.000000000000
 57       0.000000000002
 58       0.000000000000
 59       0.000000000000
 60       0.000000000000
 61      -0.000000000003
 62      -0.000000000000
 63       0.000000000000
 64       0.000000000004
 65      -0.000000000000
 66       0.000000000000
 67      -0.000000000000
 68      -0.000000000006
 69      -0.000000000000
 70      -0.000000000000
 71      -0.000000000004
 72      -0.000000000000
 73      -0.000000000000
 74       0.000000000000
 75       0.000000000005
 76       0.000000000000
 77      -0.000000000000
 78       0.000000000000
 79      -0.000000000000
 80      -0.000000000000
 81      -0.000000000000
 82       0.000000000000
 83       0.000000000000
 84       0.000000000000
 Sym=     1a
 Ene= -7.82516993532771E-01
 Spin= Alpha
 Occup= 2.000000
  1       0.000000000000
  2       0.000000000000
  3      -0.000000000000
  4       0.000000000000
  5      -0.000000000000
  6       0.000000000000
  7      -0.000000000000
  8       0.000000000000
  9       0.000000000000
 10      -0.000000000001
 11       0.000000000000
 12      -0.000000000000
 13      -0.000000000000
 14      -0.000000000000
 15       0.000000000000
 16      -0.000000000000
 17       0.000000000000
 18      -0.000000000000
 19      -0.000000000000
 20      -0.000000000000
 21       0.000000000000
 22      -0.000000000000
 23       0.000000000000
 24      -0.000000000000
 25      -0.000000000000
 26      -0.000000000000
 27       0.000000000000
 28      -0.000000000000
 29      -0.000000000000
 30      -0.638581763193
 31      -0.000000000000
 32       0.000000000000
 33       0.039945568634
 34       0.000000000000
 35      -0.322527219322
 36       0.000000000000
 37      -0.000000000000
 38       0.020175228794
 39      -0.000000000000
 40      -0.219145017874
 41       0.000000000000
 42       0.000000000000
 43       0.013708303082
 44       0.000000000000
 45      -0.071684227878
 46       0.000000000000
 47      -0.000000000000
 48       0.004484104323
 49      -0.000000000000
 50      -0.002156527359
 51       0.000000000000
 52       0.000000000000
 53       0.000134898484
 54      -0.000000000000
 55       0.000000000000
 56      -0.000000000000
 57      -0.000000000000
 58      -0.000000000000
 59       0.000000000000
 60       0.000000000000
 61       0.000000000000
 62       0.000000000000
 63      -0.000000000000
 64       0.000000000000
 65      -0.000000000000
 66      -0.000000000000
 67       0.000000000000
 68      -0.000000000000
 69      -0.000000000000
 70      -0.000000000000
 71      -0.000000000000
 72       0.000000000000
 73      -0.000000000000
 74      -0.000000000000
 75      -0.000000000000
 76      -0.000000000000
 77      -0.000000000000
 78       0.000000000000
 79      -0.000000000000
 80       0.000000000000
 81      -0.000000000000
 82      -0.000000000000
 83      -0.000000000000
 84       0.000000000000
 Sym=     1a
 Ene= -7.82516993532726E-01
 Spin= Alpha
 Occup= 2.000000
  1      -0.000000000000
  2       0.000000000000
  3      -0.000000000000
  4       0.000000000000
  5      -0.000000000000
  6       0.000000000000
  7      -0.000000000000
  8       0.000000000000
  9      -0.000000000000
 10       0.000000000000
 11      -0.000000000000
 12       0.000000000000
 13       0.000000000000
 14      -0.000000000000
 15      -0.000000000000
 16       0.000000000000
 17      -0.000000000000
 18       0.000000000000
 19      -0.000000000000
 20       0.000000000000
 21      -0.000000000000
 22       0.000000000000
 23      -0.000000000000
 24       0.000000000000
 25      -0.000000000000
 26       0.000000000000
 27      -0.000000000000
 28       0.000000000000
 29      -0.000000000000
 30       0.039945568634
 31       0.000000000000
 32      -0.000000000000
 33       0.638581763193
 34       0.000000000000
 35       0.020175228794
 36      -0.000000000000
 37       0.000000000000
 38       0.322527219322
 39      -0.000000000000
 40       0.013708303082
 41       0.000000000000
 42      -0.000000000000
 43       0.219145017874
 44       0.000000000000
 45       0.004484104323
 46      -0.000000000000
 47       0.000000000000
 48       0.071684227878
 49      -0.000000000000
 50       0.000134898484
 51       0.000000000000
 52      -0.000000000000
 53       0.002156527359
 54       0.000000000000
 55       0.000000000000
 56       0.000000000000
 57      -0.000000000000
 58      -0.000000000000
 59       0.000000000000
 60       0.000000000000
 61       0.000000000000
 62       0.000000000000
 63      -0.000000000000
 64       0.000000000000
 65       0.000000000000
 66      -0.000000000000
 67       0.000000000000
 68      -0.000000000000
 69      -0.000000000000
 70       0.000000000000
 71      -0.000000000000
 72       0.000000000000
 73       0.000000000000
 74      -0.000000000000
 75       0.000000000000
 76       0.000000000000
 77      -0.000000000000
 78       0.000000000000
 79      -0.000000000001
 80       0.000000000000
 81      -0.000000000000
 82       0.000000000000
 83       0.000000000000
 84       0.000000000000
 Sym=     1a
 Ene= -7.82516993037093E-01
 Spin= Alpha
 Occup= 2.000000
  1      -0.000000000000
  2       0.000000000000
  3      -0.000000000000
  4       0.000000000000
  5      -0.000000000000
  6       0.000000000000
  7      -0.000000000000
  8       0.000000000000
  9      -0.000000000000
 10       0.000000000000
 11      -0.000000000000
 12      -0.000000000000
 13      -0.000000000000
 14      -0.000000000000
 15      -0.000000000000
 16       0.000000000000
 17      -0.000000000000
 18       0.000000000000
 19       0.000000000000
 20       0.000000000000
 21      -0.000000000000
 22       0.000000000000
 23       0.000000000000
 24      -0.000000000000
 25       0.000000000000
 26      -0.000000000000
 27      -0.000000000000
 28      -0.000000000000
 29      -0.000000000000
 30      -0.000000000000
 31       0.000000000000
 32       0.000000000000
 33      -0.000000000000
 34      -0.639829912160
 35       0.000000000000
 36       0.000000000000
 37       0.000000000000
 38       0.000000000000
 39      -0.323157619508
 40       0.000000000000
 41      -0.000000000000
 42      -0.000000000000
 43      -0.000000000000
 44      -0.219573351051
 45      -0.000000000000
 46      -0.000000000000
 47       0.000000000000
 48       0.000000000000
 49      -0.071824339573
 50       0.000000000000
 51      -0.000000000000
 52      -0.000000000000
 53      -0.000000000000
 54      -0.002160742485
 55       0.000000000000
 56       0.000000000000
 57       0.000000000000
 58       0.000000000000
 59      -0.000000000000
 60      -0.000000000000
 61       0.000000000000
 62       0.000000000000
 63      -0.000000000000
 64      -0.000000000000
 65       0.000000000000
 66      -0.000000000000
 67       0.000000000000
 68       0.000000000000
 69      -0.000000000000
 70       0.000000000000
 71       0.000000000000
 72      -0.000000000000
 73       0.000000000000
 74       0.000000000000
 75       0.000000000000
 76       0.000000000000
 77      -0.000000000000
 78       0.000000000000
 79       0.000000000000
 80       0.000000000000
 81      -0.000000000000
 82      -0.000000000000
 83       0.000000000000
 84      -0.000000000000
 Sym=     1a
 Ene= -7.82516993037081E-01
 Spin= Alpha
 Occup= 2.000000
  1       0.000000000000
  2       0.000000000000
  3       0.000000000000
  4      -0.000000000000
  5       0.000000000000
  6      -0.000000000000
  7       0.000000000000
  8      -0.000000000000
  9       0.000000000000
 10      -0.000000000000
 11      -0.000000000000
 12      -0.000000000000
 13      -0.000000000000
 14       0.000000000000
 15      -0.000000000000
 16      -0.000000000000
 17       0.000000000000
 18       0.000000000000
 19       0.000000000000
 20       0.000000000000
 21      -0.000000000000
 22      -0.000000000000
 23      -0.000000000000
 24      -0.000000000000
 25      -0.000000000000
 26       0.000000000000
 27      -0.000000000000
 28      -0.000000000000
 29       0.000000000000
 30       0.000000000000
 31      -0.639829912160
 32       0.000000000000
 33       0.000000000000
 34      -0.000000000000
 35      -0.000000000000
 36      -0.323157619508
 37       0.000000000000
 38      -0.000000000000
 39       0.000000000000
 40       0.000000000000
 41      -0.219573351051