[Molden Format]
[Title]
 Molden file created by orca_2mkl for BaseName=mol_job2

[Atoms] AU
Be   1   4          0.0000000000         0.0000000000         0.0000000000 
[GTO]
  1 0
s   8 1.0 
    29646.7044070000         0.1141748414
     4428.7614354000         0.2140597011
     1005.4701332000         0.3703288776
      284.1533957800         0.6021227861
       92.5043564610         0.9183399996
       33.3110160580         1.2826831951
       12.9115533140         1.5434862902
        5.2665497361         1.4669657801
s   2 1.0 
       22.9953863800         0.7086073056
        6.6236354176         2.7250936436
s   1 1.0 
        2.2289595003         1.3001298377
s   1 1.0 
        0.9530243345         0.6874452014
s   1 1.0 
        0.2465160244         0.2493411503
s   1 1.0 
        0.1015389531         0.1281989899
s   1 1.0 
        0.0415513746         0.0655917380
p   4 1.0 
       14.0997894450         0.3949039575
        3.1803188482         0.3850021830
        0.9048922050         0.3243867398
        0.3041158551         0.2498040530
p   1 1.0 
        0.1130260666         0.0934142982
p   1 1.0 
        0.0428317337         0.0277745579
p   1 1.0 
        6.4000000000        14.5099212494
d   1 1.0 
        0.3600000000         0.4769792209
d   1 1.0 
        0.0900000000         0.0421594052
f   1 1.0 
        0.2900000000         0.3518808031

[5D]
[9G]
[MO]
 Sym=     1a
 Ene= -4.71184221848823E+00
 Spin= Alpha
 Occup= 2.000000
  1       0.537453458761
  2      -0.000281233809
  3       0.379027808700
  4       0.186086361429
  5       0.006072788915
  6      -0.011159062808
  7      -0.001940761412
  8      -0.000000000000
  9       0.000000000000
 10       0.000000000000
 11       0.000000000000
 12       0.000000000000
 13      -0.000000000000
 14      -0.000000000000
 15      -0.000000000000
 16       0.000000000000
 17      -0.000000000000
 18       0.000000000000
 19       0.000000000000
 20       0.000000000000
 21      -0.000000000000
 22       0.000000000000
 23      -0.000000000000
 24      -0.000000000000
 25       0.000000000000
 26      -0.000000000000
 27       0.000000000000
 28       0.000000000000
 29      -0.000000000000
 30       0.000000000000
 31       0.000000000000
 32      -0.000000000000
 33       0.000000000000
 34       0.000000000000
 35      -0.000000000000
 36       0.000000000000
 Sym=     1a
 Ene= -2.77796514987864E-01
 Spin= Alpha
 Occup= 1.803753
  1      -0.093877667547
  2      -0.011498864434
  3      -0.118827780616
  4      -0.107286080945
  5       0.284105352679
  6       0.627983596141
  7       0.214451423879
  8      -0.000000000000
  9      -0.000000000000
 10      -0.000000000000
 11      -0.000000000000
 12      -0.000000000000
 13      -0.000000000000
 14       0.000000000000
 15       0.000000000000
 16      -0.000000000000
 17       0.000000000000
 18      -0.000000000000
 19       0.000000000000
 20       0.000000000000
 21      -0.000000000000
 22       0.000000000000
 23      -0.000000000000
 24      -0.000000000000
 25       0.000000000000
 26      -0.000000000000
 27       0.000000000000
 28      -0.000000000000
 29      -0.000000000000
 30      -0.000000000000
 31       0.000000000000
 32       0.000000000000
 33      -0.000000000000
 34      -0.000000000000
 35       0.000000000000
 36      -0.000000000000
 Sym=     1a
 Ene= 1.12656416319274E-01
 Spin= Alpha
 Occup= 0.065416
  1      -0.000000000000
  2      -0.000000000000
  3      -0.000000000000
  4      -0.000000000000
  5       0.000000000000
  6       0.000000000000
  7      -0.000000000000
  8      -0.014453536180
  9       0.299937819238
 10       0.352124067154
 11      -0.018941487565
 12       0.393071176673
 13       0.461461718175
 14      -0.001179866398
 15       0.024484427207
 16       0.028744478145
 17       0.000147349287
 18      -0.003057772377
 19      -0.003589794874
 20      -0.000000000000
 21       0.000000000000
 22      -0.000000000000
 23       0.000000000000
 24       0.000000000000
 25      -0.000000000000
 26       0.000000000000
 27      -0.000000000000
 28      -0.000000000000
 29       0.000000000000
 30      -0.000000000000
 31       0.000000000000
 32      -0.000000000000
 33       0.000000000000
 34       0.000000000000
 35       0.000000000000
 36      -0.000000000000
 Sym=     1a
 Ene= 1.12656416319276E-01
 Spin= Alpha
 Occup= 0.065416
  1      -0.000000000000
  2      -0.000000000000
  3      -0.000000000000
  4      -0.000000000000
  5       0.000000000000
  6       0.000000000000
  7       0.000000000000
  8       0.462363939046
  9      -0.000667852139
 10       0.019547394449
 11       0.605932049628
 12      -0.000875226162
 13       0.025617034078
 14       0.037743543770
 15      -0.000054517890
 16       0.001595686592
 17      -0.004713655933
 18       0.000006808544
 19      -0.000199279581
 20      -0.000000000000
 21      -0.000000000000
 22      -0.000000000000
 23       0.000000000000
 24      -0.000000000000
 25      -0.000000000000
 26      -0.000000000000
 27       0.000000000000
 28       0.000000000000
 29       0.000000000000
 30      -0.000000000000
 31      -0.000000000000
 32      -0.000000000000
 33       0.000000000000
 34      -0.000000000000
 35      -0.000000000000
 36      -0.000000000000
 Sym=     1a
 Ene= 1.12656416319276E-01
 Spin= Alpha
 Occup= 0.065416
  1      -0.000000000000
  2      -0.000000000000
  3       0.000000000000
  4      -0.000000000000
  5      -0.000000000000
  6       0.000000000000
  7       0.000000000000
  8      -0.013177327047
  9      -0.352419944599
 10       0.299648960431
 11      -0.017269004159
 12      -0.461849468194
 13       0.392692624640
 14      -0.001075687306
 15      -0.028768631117
 16       0.024460847178
 17       0.000134338733
 18       0.003592811252
 19      -0.003054827552
 20      -0.000000000000
 21       0.000000000000
 22       0.000000000000
 23      -0.000000000000
 24      -0.000000000000
 25      -0.000000000000
 26       0.000000000000
 27       0.000000000000
 28       0.000000000000
 29      -0.000000000000
 30      -0.000000000000
 31       0.000000000000
 32      -0.000000000000
 33       0.000000000000
 34      -0.000000000000
 35       0.000000000000
 36       0.000000000000
 Sym=     1a
 Ene= 1.27743277537791E-01
 Spin= Alpha
 Occup= 0.000000
  1      -0.053869819659
  2       0.007346464818
  3      -0.112950238305
  4       0.076453977332
  5      -0.482399102147
  6       2.411743038371
  7      -2.253464668165
  8      -0.000000000000
  9      -0.000000000000
 10       0.000000000000
 11      -0.000000000000
 12       0.000000000000
 13       0.000000000000
 14       0.000000000000
 15      -0.000000000000
 16      -0.000000000000
 17      -0.000000000000
 18       0.000000000000
 19      -0.000000000000
 20      -0.000000000000
 21       0.000000000000
 22      -0.000000000000
 23       0.000000000000
 24       0.000000000000
 25       0.000000000000
 26       0.000000000000
 27       0.000000000000
 28      -0.000000000000
 29      -0.000000000000
 30       0.000000000000
 31       0.000000000000
 32      -0.000000000000
 33       0.000000000000
 34      -0.000000000000
 35      -0.000000000000
 36      -0.000000000000
 Sym=     1a
 Ene= 1.50918961452638E-01
 Spin= Alpha
 Occup= 0.000000
  1       0.000000000000
  2      -0.000000000000
  3       0.000000000000
  4      -0.000000000000
  5       0.000000000000
  6      -0.000000000000
  7       0.000000000000
  8      -0.055650665804
  9       0.017471515041
 10      -0.032841548029
 11      -0.773213264333
 12       0.242750144717
 13      -0.456302187779
 14       1.225323277475
 15      -0.384689990011
 16       0.723109286971
 17      -0.004046758157
 18       0.001270478888
 19      -0.002388143977
 20       0.000000000000
 21      -0.000000000000
 22      -0.000000000000
 23      -0.000000000000
 24       0.000000000000
 25      -0.000000000000
 26       0.000000000000
 27       0.000000000000
 28      -0.000000000000
 29      -0.000000000000
 30       0.000000000000
 31      -0.000000000000
 32       0.000000000000
 33       0.000000000000
 34       0.000000000000
 35      -0.000000000000
 36      -0.000000000000
 Sym=     1a
 Ene= 1.50918961452639E-01
 Spin= Alpha
 Occup= 0.000000
  1      -0.000000000000
  2       0.000000000000
  3      -0.000000000000
  4       0.000000000000
  5      -0.000000000000
  6       0.000000000000
  7      -0.000000000000
  8       0.037139829160
  9       0.022742416975
 10      -0.050835354620
 11       0.516022730845
 12       0.315984332160
 13      -0.706309078628
 14      -0.817749375208
 15      -0.500745364020
 16       1.119299157241
 17       0.002700702758
 18       0.001653763887
 19      -0.003696602422
 20      -0.000000000000
 21       0.000000000000
 22      -0.000000000000
 23      -0.000000000000
 24      -0.000000000000
 25       0.000000000000
 26      -0.000000000000
 27      -0.000000000000
 28      -0.000000000000
 29      -0.000000000000
 30      -0.000000000000
 31      -0.000000000000
 32      -0.000000000000
 33      -0.000000000000
 34      -0.000000000000
 35      -0.000000000000
 36       0.000000000000
 Sym=     1a
 Ene= 1.50918961452639E-01
 Spin= Alpha
 Occup= 0.000000
  1      -0.000000000000
  2       0.000000000000
  3      -0.000000000000
  4       0.000000000000
  5      -0.000000000000
  6       0.000000000000
  7      -0.000000000000
  8      -0.002110498702
  9      -0.060484265322
 10      -0.028600999334
 11      -0.029323379468
 12      -0.840371549103
 13      -0.397383782190
 14       0.046469222779
 15       1.331750072513
 16       0.629740358669
 17      -0.000153469464
 18      -0.004398243768
 19      -0.002079783336
 20      -0.000000000000
 21      -0.000000000000
 22      -0.000000000000
 23       0.000000000000
 24      -0.000000000000
 25      -0.000000000000
 26      -0.000000000000
 27       0.000000000000
 28      -0.000000000000
 29       0.000000000000
 30      -0.000000000000
 31       0.000000000000
 32       0.000000000000
 33       0.000000000000
 34       0.000000000000
 35       0.000000000000
 36      -0.000000000000
 Sym=     1a
 Ene= 2.74857764477792E-01
 Spin= Alpha
 Occup= 0.000000
  1       0.000000000000
  2      -0.000000000000
  3       0.000000000000
  4       0.000000000000
  5      -0.000000000000
  6      -0.000000000000
  7       0.000000000000
  8       0.000000000000
  9      -0.000000000000
 10      -0.000000000000
 11      -0.000000000000
 12       0.000000000000
 13       0.000000000000
 14       0.000000000000
 15      -0.000000000000
 16       0.000000000000
 17      -0.000000000000
 18       0.000000000000
 19      -0.000000000000
 20      -0.018592266532
 21       0.007642464885
 22       0.001428170933
 23       0.033332049625
 24      -0.007180251671
 25       0.477643936845
 26      -0.196338461948
 27      -0.036690372624
 28      -0.856315790146
 29       0.184463990420
 30      -0.000000000000
 31       0.000000000000
 32      -0.000000000000
 33       0.000000000000
 34      -0.000000000000
 35      -0.000000000000
 36      -0.000000000000
 Sym=     1a
 Ene= 2.74857764477792E-01
 Spin= Alpha
 Occup= 0.000000
  1      -0.000000000000
  2       0.000000000000
  3      -0.000000000000
  4       0.000000000000
  5      -0.000000000000
  6       0.000000000000
  7      -0.000000000000
  8       0.000000000000
  9      -0.000000000000
 10      -0.000000000000
 11      -0.000000000000
 12      -0.000000000000
 13       0.000000000000
 14       0.000000000000
 15       0.000000000000
 16      -0.000000000000
 17       0.000000000000
 18      -0.000000000000
 19       0.000000000000
 20       0.008845868263
 21       0.000943885579
 22       0.031035536692
 23       0.008018435126
 24       0.021495597639
 25      -0.227254451987
 26      -0.024248857604
 27      -0.797317309433
 28      -0.205997311526
 29      -0.552231857451
 30      -0.000000000000
 31       0.000000000000
 32      -0.000000000000
 33       0.000000000000
 34      -0.000000000000
 35      -0.000000000000
 36      -0.000000000000
 Sym=     1a
 Ene= 2.74857764477792E-01
 Spin= Alpha
 Occup= 0.000000
  1      -0.000000000000
  2       0.000000000000
  3      -0.000000000000
  4       0.000000000000
  5      -0.000000000000
  6       0.000000000000
  7      -0.000000000000
  8       0.000000000000
  9       0.000000000000
 10       0.000000000000
 11      -0.000000000000
 12       0.000000000000
 13      -0.000000000000
 14       0.000000000000
 15      -0.000000000000
 16       0.000000000000
 17      -0.000000000000
 18       0.000000000000
 19      -0.000000000000
 20      -0.000031746862
 21       0.032193504369
 22       0.012733909703
 23      -0.011298988517
 24      -0.015571080039
 25       0.000815591594
 26      -0.827066035271
 27      -0.327140037031
 28       0.290276247297
 29       0.400028256804
 30       0.000000000000
 31       0.000000000000
 32       0.000000000000
 33      -0.000000000000
 34      -0.000000000000
 35       0.000000000000
 36       0.000000000000
 Sym=     1a
 Ene= 2.74857764477793E-01
 Spin= Alpha
 Occup= 0.000000
  1      -0.000000000000
  2      -0.000000000000
  3      -0.000000000000
  4       0.000000000000
  5      -0.000000000000
  6       0.000000000000
  7      -0.000000000000
  8       0.000000000000
  9      -0.000000000000
 10       0.000000000000
 11      -0.000000000000
 12      -0.000000000000
 13       0.000000000000
 14       0.000000000000
 15       0.000000000000
 16      -0.000000000000
 17      -0.000000000000
 18       0.000000000000
 19      -0.000000000000
 20      -0.020154484690
 21      -0.019545741794
 22       0.020175569458
 23      -0.011041148944
 24      -0.015858783511
 25       0.517778044742
 26       0.502139157859
 27      -0.518319722203
 28       0.283652229255
 29       0.407419492225
 30      -0.000000000000
 31       0.000000000000
 32      -0.000000000000
 33       0.000000000000
 34      -0.000000000000
 35      -0.000000000000
 36      -0.000000000000
 Sym=     1a
 Ene= 2.74857764477792E-01
 Spin= Alpha
 Occup= 0.000000
  1       0.000000000000
  2      -0.000000000000
  3       0.000000000000
  4      -0.000000000000
  5       0.000000000000
  6      -0.000000000000
  7       0.000000000000
  8       0.000000000000
  9       0.000000000000
 10      -0.000000000000
 11      -0.000000000000
 12      -0.000000000000
 13       0.000000000000
 14       0.000000000000
 15       0.000000000000
 16      -0.000000000000
 17       0.000000000000
 18      -0.000000000000
 19       0.000000000000
 20      -0.027176733463
 21       0.009536504993
 22      -0.005852400666
 23      -0.011991910491
 24       0.023688068365
 25       0.698182867553
 26      -0.244997229401
 27       0.150350883223
 28       0.308077733678
 29      -0.608557445663
 30      -0.000000000000
 31       0.000000000000
 32       0.000000000000
 33       0.000000000000
 34       0.000000000000
 35      -0.000000000000
 36      -0.000000000000
 Sym=     1a
 Ene= 6.81115036913963E-01
 Spin= Alpha
 Occup= 0.000000
  1      -0.106349694422
  2      -0.068205210720
  3       0.035990245338
  4      -0.728219084800
  5       3.541401100224
  6      -4.150136619386
  7       1.567887165193
  8       0.000000000000
  9      -0.000000000000
 10       0.000000000000
 11      -0.000000000000
 12       0.000000000000
 13      -0.000000000000
 14       0.000000000000
 15      -0.000000000000
 16       0.000000000000
 17      -0.000000000000
 18       0.000000000000
 19       0.000000000000
 20       0.000000000000
 21      -0.000000000000
 22      -0.000000000000
 23      -0.000000000000
 24       0.000000000000
 25      -0.000000000000
 26       0.000000000000
 27       0.000000000000
 28       0.000000000000
 29       0.000000000000
 30      -0.000000000000
 31      -0.000000000000
 32      -0.000000000000
 33      -0.000000000000
 34       0.000000000000
 35      -0.000000000000
 36       0.000000000000
 Sym=     1a
 Ene= 7.67035902183004E-01
 Spin= Alpha
 Occup= 0.000000
  1      -0.000000000000
  2      -0.000000000000
  3      -0.000000000000
  4      -0.000000000000
  5       0.000000000000
  6      -0.000000000000
  7       0.000000000000
  8      -0.055185951368
  9       1.086961566777
 10       0.874205539488
 11       0.071619893285
 12      -1.410650165275
 13      -1.134537067782
 14      -0.030380767212
 15       0.598390088597
 16       0.481264422050
 17       0.001113627717
 18      -0.021934396311
 19      -0.017641075220
 20       0.000000000000
 21       0.000000000000
 22      -0.000000000000
 23      -0.000000000000
 24       0.000000000000
 25      -0.000000000000
 26      -0.000000000000
 27       0.000000000000
 28      -0.000000000000
 29      -0.000000000000
 30      -0.000000000000
 31      -0.000000000000
 32      -0.000000000000
 33       0.000000000000
 34      -0.000000000000
 35      -0.000000000000
 36      -0.000000000000
 Sym=     1a
 Ene= 7.67035902183004E-01
 Spin= Alpha
 Occup= 0.000000
  1      -0.000000000000
  2      -0.000000000000
  3      -0.000000000000
  4      -0.000000000000
  5       0.000000000000
  6      -0.000000000000
  7       0.000000000000
  8      -0.319464100264
  9       0.841786644378
 10      -1.066819664301
 11       0.414597994641
 12      -1.092464080897
 13       1.384510162790
 14      -0.175870202870
 15       0.463417291011
 16      -0.587301642440
 17       0.006446642086
 18      -0.016986876475
 19       0.021527941764
 20       0.000000000000
 21      -0.000000000000
 22       0.000000000000
 23      -0.000000000000
 24       0.000000000000
 25      -0.000000000000
 26       0.000000000000
 27      -0.000000000000
 28       0.000000000000
 29      -0.000000000000
 30       0.000000000000
 31      -0.000000000000
 32       0.000000000000
 33      -0.000000000000
 34       0.000000000000
 35       0.000000000000
 36      -0.000000000000
 Sym=     1a
 Ene= 7.67035902183004E-01
 Spin= Alpha
 Occup= 0.000000
  1       0.000000000000
  2       0.000000000000
  3       0.000000000000
  4       0.000000000000
  5      -0.000000000000
  6       0.000000000000
  7      -0.000000000000
  8       1.357815694991
  9       0.242231417958
 10      -0.215468653729
 11      -1.762162520826
 12      -0.314366027486
 13       0.279633522735
 14       0.747499708231
 15       0.133352350334
 16      -0.118619011689
 17      -0.027400110990
 18      -0.004888121239
 19       0.004348060675
 20       0.000000000000
 21       0.000000000000
 22       0.000000000000
 23       0.000000000000
 24      -0.000000000000
 25      -0.000000000000
 26      -0.000000000000
 27      -0.000000000000
 28      -0.000000000000
 29      -0.000000000000
 30       0.000000000000
 31      -0.000000000000
 32       0.000000000000
 33       0.000000000000
 34      -0.000000000000
 35       0.000000000000
 36      -0.000000000000
 Sym=     1a
 Ene= 1.11872535776371E+00
 Spin= Alpha
 Occup= 0.000000
  1       0.000000000000
  2      -0.000000000000
  3       0.000000000000
  4       0.000000000000
  5      -0.000000000000
  6       0.000000000000
  7      -0.000000000000
  8       0.000000000000
  9      -0.000000000000
 10       0.000000000000
 11      -0.000000000000
 12       0.000000000000
 13       0.000000000000
 14       0.000000000000
 15      -0.000000000000
 16      -0.000000000000
 17      -0.000000000000
 18       0.000000000000
 19      -0.000000000000
 20       0.555923959762
 21       0.081174045448
 22       0.068620986216
 23      -0.673061042875
 24      -0.700312237076
 25      -0.237171963911
 26      -0.034631009222
 27      -0.029275539902
 28       0.287145762595
 29       0.298771847663
 30       0.000000000000
 31      -0.000000000000
 32      -0.000000000000
 33       0.000000000000
 34      -0.000000000000
 35       0.000000000000
 36       0.000000000000
 Sym=     1a
 Ene= 1.11872535776371E+00
 Spin= Alpha
 Occup= 0.000000
  1      -0.000000000000
  2      -0.000000000000
  3      -0.000000000000
  4      -0.000000000000
  5       0.000000000000
  6      -0.000000000000
  7       0.000000000000
  8      -0.000000000000
  9       0.000000000000
 10      -0.000000000000
 11       0.000000000000
 12      -0.000000000000
 13       0.000000000000
 14      -0.000000000000
 15       0.000000000000
 16      -0.000000000000
 17       0.000000000000
 18      -0.000000000000
 19       0.000000000000
 20      -0.375750866383
 21       1.007348756299
 22      -0.290950330466
 23      -0.116891876640
 24      -0.097682522735
 25       0.160305324778
 26      -0.429761802274
 27       0.124127158158
 28       0.049869187073
 29       0.041673965207
 30       0.000000000000
 31      -0.000000000000
 32       0.000000000000
 33      -0.000000000000
 34       0.000000000000
 35      -0.000000000000
 36       0.000000000000
 Sym=     1a
 Ene= 1.11872535776371E+00
 Spin= Alpha
 Occup= 0.000000
  1       0.000000000000
  2      -0.000000000000
  3       0.000000000000
  4       0.000000000000
  5      -0.000000000000
  6       0.000000000000
  7      -0.000000000000
  8       0.000000000000
  9      -0.000000000000
 10       0.000000000000
 11      -0.000000000000
 12       0.000000000000
 13      -0.000000000000
 14       0.000000000000
 15       0.000000000000
 16      -0.000000000000
 17      -0.000000000000
 18       0.000000000000
 19      -0.000000000000
 20      -0.153317864845
 21      -0.051039713364
 22       0.127341198549
 23      -0.852121769630
 24       0.703817590097
 25       0.065409483562
 26       0.021774900764
 27      -0.054327146035
 28       0.363537836507
 29      -0.300267324599
 30       0.000000000000
 31      -0.000000000000
 32       0.000000000000
 33      -0.000000000000
 34       0.000000000000
 35       0.000000000000
 36       0.000000000000
 Sym=     1a
 Ene= 1.11872535776371E+00
 Spin= Alpha
 Occup= 0.000000
  1       0.000000000000
  2      -0.000000000000
  3       0.000000000000
  4       0.000000000000
  5      -0.000000000000
  6       0.000000000000
  7      -0.000000000000
  8       0.000000000000
  9      -0.000000000000
 10      -0.000000000000
 11      -0.000000000000
 12       0.000000000000
 13       0.000000000000
 14       0.000000000000
 15      -0.000000000000
 16      -0.000000000000
 17       0.000000000000
 18       0.000000000000
 19       0.000000000000
 20       0.284764887585
 21      -0.190629872250
 22      -1.056437832988
 23      -0.063960026617
 24       0.161911524934
 25      -0.121488283524
 26       0.081327779434
 27       0.450704509493
 28       0.027287050429
 29      -0.069075767781
 30      -0.000000000000
 31       0.000000000000
 32      -0.000000000000
 33       0.000000000000
 34      -0.000000000000
 35      -0.000000000000
 36      -0.000000000000
 Sym=     1a
 Ene= 1.11872535776372E+00
 Spin= Alpha
 Occup= 0.000000
  1      -0.000000000000
  2      -0.000000000000
  3       0.000000000000
  4      -0.000000000000
  5       0.000000000000
  6      -0.000000000000
  7       0.000000000000
  8       0.000000000000
  9       0.000000000000
 10       0.000000000000
 11      -0.000000000000
 12      -0.000000000000
 13      -0.000000000000
 14       0.000000000000
 15       0.000000000000
 16       0.000000000000
 17      -0.000000000000
 18       0.000000000000
 19      -0.000000000000
 20      -0.841997826463
 21      -0.451123451251
 22      -0.205329737036
 23      -0.258690235096
 24      -0.492183161631
 25       0.359218692780
 26       0.192461276440
 27       0.087599133168
 28       0.110364142478
 29       0.209978442192
 30       0.000000000000
 31       0.000000000000
 32       0.000000000000
 33      -0.000000000000
 34      -0.000000000000
 35       0.000000000000
 36      -0.000000000000
 Sym=     1a
 Ene= 1.17608094793966E+00
 Spin= Alpha
 Occup= 0.000000
  1       0.000000000000
  2       0.000000000000
  3       0.000000000000
  4       0.000000000000
  5      -0.000000000000
  6       0.000000000000
  7       0.000000000000
  8      -0.000000000000
  9      -0.000000000000
 10      -0.000000000000
 11      -0.000000000000
 12       0.000000000000
 13       0.000000000000
 14      -0.000000000000
 15      -0.000000000000
 16      -0.000000000000
 17       0.000000000000
 18      -0.000000000000
 19      -0.000000000000
 20      -0.000000000000
 21      -0.000000000000
 22       0.000000000000
 23       0.000000000000
 24      -0.000000000000
 25       0.000000000000
 26       0.000000000000
 27      -0.000000000000
 28      -0.000000000000
 29       0.000000000000
 30      -0.029244973790
 31      -0.274749736723
 32       0.175793383999
 33       0.191830351862
 34      -0.487963827616
 35      -0.733606571855
 36       0.282254878781
 Sym=     1a
 Ene= 1.17608094793966E+00
 Spin= Alpha
 Occup= 0.000000
  1       0.000000000000
  2       0.000000000000
  3       0.000000000000
  4       0.000000000000
  5      -0.000000000000
  6       0.000000000000
  7      -0.000000000000
  8       0.000000000000
  9      -0.000000000000
 10       0.000000000000
 11      -0.000000000000
 12      -0.000000000000
 13      -0.000000000000
 14       0.000000000000
 15       0.000000000000
 16      -0.000000000000
 17      -0.000000000000
 18       0.000000000000
 19      -0.000000000000
 20       0.000000000000
 21      -0.000000000000
 22      -0.000000000000
 23      -0.000000000000
 24       0.000000000000
 25      -0.000000000000
 26       0.000000000000
 27       0.000000000000
 28       0.000000000000
 29      -0.000000000000
 30       0.036571446553
 31      -0.472566020938
 32      -0.142660341398
 33      -0.214011379518
 34       0.570637496898
 35      -0.455594345895
 36      -0.419520775056
 Sym=     1a
 Ene= 1.17608094793966E+00
 Spin= Alpha
 Occup= 0.000000
  1      -0.000000000000
  2      -0.000000000000
  3       0.000000000000
  4      -0.000000000000
  5       0.000000000000
  6      -0.000000000000
  7      -0.000000000000
  8      -0.000000000000
  9      -0.000000000000
 10       0.000000000000
 11       0.000000000000
 12       0.000000000000
 13       0.000000000000
 14      -0.000000000000
 15      -0.000000000000
 16      -0.000000000000
 17      -0.000000000000
 18       0.000000000000
 19      -0.000000000000
 20      -0.000000000000
 21       0.000000000000
 22       0.000000000000
 23       0.000000000000
 24      -0.000000000000
 25       0.000000000000
 26      -0.000000000000
 27      -0.000000000000
 28      -0.000000000000
 29       0.000000000000
 30      -0.462550452126
 31      -0.540247644400
 32       0.232208106236
 33       0.243978555457
 34      -0.277731467558
 35       0.366729626652
 36      -0.411227473179
 Sym=     1a
 Ene= 1.17608094793966E+00
 Spin= Alpha
 Occup= 0.000000
  1       0.000000000000
  2      -0.000000000000
  3       0.000000000000
  4      -0.000000000000
  5      -0.000000000000
  6       0.000000000000
  7       0.000000000000
  8      -0.000000000000
  9      -0.000000000000
 10      -0.000000000000
 11       0.000000000000
 12      -0.000000000000
 13      -0.000000000000
 14      -0.000000000000
 15      -0.000000000000
 16      -0.000000000000
 17       0.000000000000
 18       0.000000000000
 19       0.000000000000
 20      -0.000000000000
 21       0.000000000000
 22       0.000000000000
 23      -0.000000000000
 24       0.000000000000
 25       0.000000000000
 26      -0.000000000000
 27      -0.000000000000
 28       0.000000000000
 29      -0.000000000000
 30      -0.276118043486
 31       0.104157492436
 32      -0.857318790929
 33       0.384939322996
 34      -0.110047697806
 35      -0.095190137790
 36      -0.092545086506
 Sym=     1a
 Ene= 1.17608094793966E+00
 Spin= Alpha
 Occup= 0.000000
  1      -0.000000000000
  2      -0.000000000000
  3      -0.000000000000
  4       0.000000000000
  5      -0.000000000000
  6       0.000000000000
  7      -0.000000000000
  8       0.000000000000
  9       0.000000000000
 10      -0.000000000000
 11      -0.000000000000
 12       0.000000000000
 13       0.000000000000
 14       0.000000000000
 15      -0.000000000000
 16      -0.000000000000
 17       0.000000000000
 18       0.000000000000
 19       0.000000000000
 20       0.000000000000
 21       0.000000000000
 22       0.000000000000
 23      -0.000000000000
 24      -0.000000000000
 25      -0.000000000000
 26      -0.000000000000
 27      -0.000000000000
 28       0.000000000000
 29       0.000000000000
 30      -0.669390285482
 31       0.540810176192
 32       0.311556952695
 33       0.006439207349
 34       0.198466299433
 35      -0.300830272322
 36      -0.180122392026
 Sym=     1a
 Ene= 1.17608094793966E+00
 Spin= Alpha
 Occup= 0.000000
  1       0.000000000000
  2       0.000000000000
  3      -0.000000000000
  4       0.000000000000
  5      -0.000000000000
  6       0.000000000000
  7      -0.000000000000
  8      -0.000000000000
  9      -0.000000000000
 10       0.000000000000
 11      -0.000000000000
 12       0.000000000000
 13      -0.000000000000
 14       0.000000000000
 15      -0.000000000000
 16       0.000000000000
 17      -0.000000000000
 18       0.000000000000
 19      -0.000000000000
 20       0.000000000000
 21       0.000000000000
 22      -0.000000000000
 23      -0.000000000000
 24       0.000000000000
 25      -0.000000000000
 26      -0.000000000000
 27       0.000000000000
 28       0.000000000000
 29      -0.000000000000
 30      -0.150972916300
 31       0.044863394380
 32      -0.222512304073
 33      -0.808695387115
 34      -0.481614064888
 35      -0.030989591706
 36      -0.196931555348
 Sym=     1a
 Ene= 1.17608094793966E+00
 Spin= Alpha
 Occup= 0.000000
  1      -0.000000000000
  2       0.000000000000
  3      -0.000000000000
  4       0.000000000000
  5       0.000000000000
  6      -0.000000000000
  7       0.000000000000
  8      -0.000000000000
  9      -0.000000000000
 10       0.000000000000
 11       0.000000000000
 12      -0.000000000000
 13      -0.000000000000
 14      -0.000000000000
 15       0.000000000000