[Molden Format]
[Title]
 Molden file created by orca_2mkl for BaseName=mol

[Atoms] AU
S    1  16          0.0000000000         0.0000000000         0.0000000000 
[GTO]
  1 0
s  10 1.0 
  1273410.9023000000         0.3893632511
   190697.8300700000         0.7286817882
    43397.8853300000         1.2621646658
    12291.8096770000         2.0641927584
     4009.7420824000         3.2192057752
     1447.3531030000         4.7726018316
      564.3010291300         6.6081274881
      233.7450624300         8.1478423166
      101.5640281400         8.1876019792
       45.8059071870         5.5771485997
s   3 1.0 
      394.2728150300         1.4841502246
      121.7224959100         5.5298626357
       46.7541259630        10.2043312442
s   1 1.0 
       20.9230082540         6.9723340610
s   1 1.0 
        8.2685567800         3.4752205925
s   1 1.0 
        3.8629345671         1.9638038454
s   1 1.0 
        1.7794684781         1.0980644126
s   1 1.0 
        0.6106426010         0.4923233303
s   1 1.0 
        0.2741226944         0.2700031533
s   1 1.0 
        0.1132593911         0.1391444085
p   8 1.0 
     2189.8930459000         5.3438712158
      518.9459659200         7.6750836929
      168.1956015100        10.1584999691
       63.7452827880        11.8414238337
       26.5970330770        11.6403063204
       11.7742514490         8.7557837856
        5.3534379024         4.5986073323
        2.4701911802         1.3716903760
p   2 1.0 
       82.1202883490       -21.8432820087
        4.9523532869        10.6061437163
p   1 1.0 
        1.0828262029         1.5744850220
p   1 1.0 
        0.4927127736         0.5884131431
p   1 1.0 
        0.2048345094         0.1964237488
p   1 1.0 
        0.0807436157         0.0613515203
d   1 1.0 
        4.1590000000        34.5303272452
d   1 1.0 
        1.0190000000         2.9462860234
d   1 1.0 
        0.4640000000         0.7436636426
d   1 1.0 
        0.1940000000         0.1616676446
f   1 1.0 
        0.3350000000         0.4868003648
f   1 1.0 
        0.8690000000         4.1571392892
g   1 1.0 
        0.6830000000         2.3074185655

[5D]
[9G]
[MO]
 Sym=     1a
 Ene= -9.20127284869986E+01
 Spin= Alpha
 Occup= 1.000000
  1       0.814105958354
  2       0.001734764050
  3       0.214726504714
  4       0.029266918183
  5      -0.003045056959
  6       0.001705381076
  7      -0.000649041790
  8       0.000307171468
  9      -0.000091480250
 10       0.000000000000
 11      -0.000000000000
 12      -0.000000000000
 13       0.000000000000
 14      -0.000000000000
 15      -0.000000000000
 16      -0.000000000000
 17      -0.000000000000
 18       0.000000000000
 19       0.000000000000
 20      -0.000000000000
 21      -0.000000000000
 22       0.000000000000
 23      -0.000000000000
 24      -0.000000000000
 25      -0.000000000000
 26       0.000000000000
 27       0.000000000000
 28       0.000005567202
 29       0.000000000000
 30      -0.000000000000
 31      -0.000009642676
 32      -0.000000000000
 33      -0.000004132246
 34      -0.000000000000
 35       0.000000000000
 36       0.000007157260
 37      -0.000000000000
 38       0.000002508830
 39       0.000000000000
 40      -0.000000000000
 41      -0.000004345421
 42      -0.000000000000
 43      -0.000000972136
 44       0.000000000000
 45       0.000000000000
 46       0.000001683789
 47      -0.000000000000
 48       0.000000000000
 49      -0.000000000000
 50       0.000000000000
 51      -0.000000000000
 52      -0.000000000000
 53      -0.000000000000
 54       0.000000000000
 55      -0.000000000000
 56       0.000000000000
 57      -0.000000000000
 58       0.000000000000
 59       0.000000000000
 60       0.000000000000
 61      -0.000000000000
 62       0.000000000598
 63      -0.000000000000
 64       0.000000000000
 65      -0.000000000892
 66       0.000000000000
 67      -0.000000000000
 68      -0.000000000000
 69      -0.000000001180
 70       0.000000000000
 Sym=     1a
 Ene= -9.01240560876386E+00
 Spin= Alpha
 Occup= 1.000000
  1       0.227782011184
  2       0.093613104662
  3       0.137237848420
  4      -0.198579723047
  5      -0.566694389294
  6      -0.370050962797
  7      -0.031546662088
  8       0.004254305666
  9      -0.001500597128
 10       0.000000000000
 11       0.000000000000
 12      -0.000000000000
 13       0.000000000000
 14       0.000000000000
 15      -0.000000000000
 16      -0.000000000000
 17      -0.000000000000
 18       0.000000000000
 19       0.000000000000
 20      -0.000000000000
 21      -0.000000000000
 22       0.000000000000
 23       0.000000000000
 24      -0.000000000000
 25      -0.000000000000
 26       0.000000000000
 27       0.000000000000
 28      -0.000408335943
 29      -0.000000000000
 30      -0.000000000000
 31       0.000707258600
 32       0.000000000000
 33      -0.000506410763
 34      -0.000000000000
 35       0.000000000000
 36       0.000877129171
 37       0.000000000000
 38       0.000147655816
 39       0.000000000000
 40      -0.000000000000
 41      -0.000255747375
 42       0.000000000000
 43      -0.000058545497
 44      -0.000000000000
 45       0.000000000000
 46       0.000101403775
 47       0.000000000000
 48      -0.000000000000
 49      -0.000000000000
 50      -0.000000000000
 51      -0.000000000000
 52       0.000000000000
 53       0.000000000000
 54      -0.000000000000
 55       0.000000000000
 56       0.000000000000
 57       0.000000000000
 58       0.000000000000
 59      -0.000000000000
 60      -0.000000000000
 61      -0.000000000000
 62      -0.000000476583
 63       0.000000000000
 64       0.000000000000
 65       0.000000710447
 66       0.000000000000
 67      -0.000000000000
 68      -0.000000000000
 69       0.000000939834
 70       0.000000000000
 Sym=     1a
 Ene= -6.70555147530899E+00
 Spin= Alpha
 Occup= 1.000000
  1       0.000000000000
  2       0.000000000000
  3       0.000000000000
  4       0.000000000000
  5      -0.000000000000
  6       0.000000000000
  7      -0.000000000000
  8      -0.000000000000
  9      -0.000000000000
 10      -0.000000000000
 11       0.000000000000
 12      -0.961369048912
 13       0.000000000000
 14      -0.000000000000
 15       0.003391754823
 16      -0.000000000000
 17      -0.000000000000
 18      -0.074773102483
 19       0.000000000000
 20       0.000000000000
 21      -0.001637323635
 22      -0.000000000000
 23      -0.000000000000
 24      -0.000946130181
 25      -0.000000000000
 26       0.000000000000
 27       0.000132363266
 28       0.000000000000
 29       0.000000000000
 30      -0.000000000000
 31       0.000000000000
 32      -0.000000000000
 33       0.000000000000
 34      -0.000000000000
 35       0.000000000000
 36      -0.000000000000
 37      -0.000000000000
 38      -0.000000000000
 39      -0.000000000000
 40       0.000000000000
 41      -0.000000000000
 42       0.000000000000
 43       0.000000000000
 44       0.000000000000
 45      -0.000000000000
 46       0.000000000000
 47       0.000000000000
 48       0.000133809114
 49      -0.000000000000
 50      -0.000000000000
 51      -0.000172746823
 52      -0.000000000000
 53      -0.000000000000
 54       0.000000000000
 55      -0.000445806645
 56       0.000000000000
 57       0.000000000000
 58       0.000575533904
 59       0.000000000000
 60       0.000000000000
 61      -0.000000000000
 62      -0.000000000000
 63       0.000000000000
 64      -0.000000000000
 65      -0.000000000000
 66      -0.000000000000
 67      -0.000000000000
 68      -0.000000000000
 69       0.000000000000
 70       0.000000000000
 Sym=     1a
 Ene= -6.70555147530898E+00
 Spin= Alpha
 Occup= 1.000000
  1      -0.000000000000
  2      -0.000000000000
  3       0.000000000000
  4       0.000000000000
  5      -0.000000000000
  6      -0.000000000000
  7      -0.000000000000
  8      -0.000000000000
  9      -0.000000000000
 10       0.000000000000
 11       0.961369048912
 12      -0.000000000000
 13       0.000000000000
 14      -0.003391754823
 15      -0.000000000000
 16       0.000000000000
 17       0.074773102483
 18       0.000000000000
 19       0.000000000000
 20       0.001637323635
 21      -0.000000000000
 22      -0.000000000000
 23       0.000946130181
 24       0.000000000000
 25      -0.000000000000
 26      -0.000132363266
 27      -0.000000000000
 28      -0.000000000000
 29       0.000000000000
 30      -0.000000000000
 31      -0.000000000000
 32       0.000000000000
 33       0.000000000000
 34      -0.000000000000
 35       0.000000000000
 36       0.000000000000
 37       0.000000000000
 38      -0.000000000000
 39      -0.000000000000
 40      -0.000000000000
 41      -0.000000000000
 42      -0.000000000000
 43       0.000000000000
 44       0.000000000000
 45      -0.000000000000
 46       0.000000000000
 47      -0.000000000000
 48      -0.000000000000
 49       0.000000000000
 50      -0.000054627342
 51      -0.000000000000
 52       0.000000000000
 53       0.000000000000
 54      -0.000211570786
 55      -0.000000000000
 56       0.000000000000
 57       0.000181999801
 58       0.000000000000
 59      -0.000000000000
 60      -0.000000000000
 61       0.000704882198
 62       0.000000000000
 63      -0.000000000000
 64       0.000000000000
 65       0.000000000000
 66       0.000000000000
 67       0.000000000000
 68       0.000000000000
 69       0.000000000000
 70       0.000000000000
 Sym=     1a
 Ene= -6.68505931155687E+00
 Spin= Alpha
 Occup= 1.000000
  1       0.000000000000
  2       0.000000000000
  3       0.000000000000
  4       0.000000000000
  5      -0.000000000000
  6      -0.000000000000
  7      -0.000000000000
  8      -0.000000000000
  9      -0.000000000000
 10       0.962177704046
 11       0.000000000000
 12       0.000000000000
 13      -0.003247448842
 14       0.000000000000
 15      -0.000000000000
 16       0.073260741756
 17      -0.000000000000
 18      -0.000000000000
 19       0.001475475968
 20       0.000000000000
 21       0.000000000000
 22       0.000814378966
 23      -0.000000000000
 24      -0.000000000000
 25      -0.000105095712
 26      -0.000000000000
 27      -0.000000000000
 28      -0.000000000000
 29      -0.000000000000
 30      -0.000000000000
 31       0.000000000000
 32      -0.000000000000
 33       0.000000000000
 34       0.000000000000
 35       0.000000000000
 36       0.000000000000
 37      -0.000000000000
 38      -0.000000000000
 39      -0.000000000000
 40       0.000000000000
 41       0.000000000000
 42       0.000000000000
 43       0.000000000000
 44       0.000000000000
 45      -0.000000000000
 46       0.000000000000
 47      -0.000000000000
 48       0.000000000000
 49      -0.000165584385
 50       0.000000000000
 51      -0.000000000000
 52      -0.000000000000
 53      -0.000213768522
 54      -0.000000000000
 55      -0.000000000000
 56       0.000542818700
 57      -0.000000000000
 58       0.000000000000
 59       0.000000000000
 60       0.000700775928
 61      -0.000000000000
 62       0.000000000000
 63      -0.000000000000
 64       0.000000000000
 65      -0.000000000000
 66      -0.000000000000
 67       0.000000000000
 68      -0.000000000000
 69      -0.000000000000
 70       0.000000000000
 Sym=     1a
 Ene= -9.89562422769566E-01
 Spin= Alpha
 Occup= 1.000000
  1       0.066147812028
  2       0.030545112388
  3       0.043651137376
  4      -0.069000308242
  5      -0.263054474462
  6      -0.308071385623
  7       0.299148792586
  8       0.686663259012
  9       0.239737340029
 10      -0.000000000000
 11      -0.000000000000
 12       0.000000000000
 13      -0.000000000000
 14      -0.000000000000
 15       0.000000000000
 16       0.000000000000
 17       0.000000000000
 18      -0.000000000000
 19      -0.000000000000
 20       0.000000000000
 21       0.000000000000
 22      -0.000000000000
 23      -0.000000000000
 24       0.000000000000
 25       0.000000000000
 26      -0.000000000000
 27      -0.000000000000
 28       0.000982530254
 29      -0.000000000000
 30       0.000000000000
 31      -0.001701792320
 32      -0.000000000000
 33       0.005425157232
 34       0.000000000000
 35      -0.000000000000
 36      -0.009396647964
 37      -0.000000000000
 38       0.012559424084
 39      -0.000000000000
 40       0.000000000000
 41      -0.021753560627
 42      -0.000000000000
 43       0.006159319867
 44       0.000000000000
 45      -0.000000000000
 46      -0.010668254950
 47      -0.000000000000
 48       0.000000000000
 49      -0.000000000000
 50      -0.000000000000
 51      -0.000000000000
 52      -0.000000000000
 53      -0.000000000000
 54       0.000000000000
 55      -0.000000000000
 56      -0.000000000000
 57       0.000000000000
 58      -0.000000000000
 59       0.000000000000
 60      -0.000000000000
 61       0.000000000000
 62       0.000145376050
 63       0.000000000000
 64      -0.000000000000
 65      -0.000216713820
 66       0.000000000000
 67      -0.000000000000
 68      -0.000000000000
 69      -0.000286685436
 70       0.000000000000
 Sym=     1a
 Ene= -4.86746261736818E-01
 Spin= Alpha
 Occup= 1.000000
  1       0.000000000000
  2      -0.000000000000
  3       0.000000000000
  4      -0.000000000000
  5      -0.000000000000
  6       0.000000000000
  7      -0.000000000000
  8       0.000000000000
  9      -0.000000000000
 10       0.000000000000
 11       0.000000000000
 12       0.261555974133
 13      -0.000000000000
 14      -0.000000000000
 15       0.009227735657
 16       0.000000000000
 17       0.000000000000
 18      -0.100942567893
 19      -0.000000000000
 20      -0.000000000000
 21      -0.413508357536
 22       0.000000000000
 23       0.000000000000
 24      -0.482793887203
 25      -0.000000000000
 26      -0.000000000000
 27      -0.159969160795
 28      -0.000000000000
 29       0.000000000000
 30      -0.000000000000
 31      -0.000000000000
 32      -0.000000000000
 33       0.000000000000
 34      -0.000000000000
 35       0.000000000000
 36       0.000000000000
 37      -0.000000000000
 38      -0.000000000000
 39      -0.000000000000
 40       0.000000000000
 41      -0.000000000000
 42       0.000000000000
 43       0.000000000000
 44      -0.000000000000
 45      -0.000000000000
 46       0.000000000000
 47       0.000000000000
 48      -0.009330959071
 49       0.000000000000
 50      -0.000000000000
 51       0.012046216362
 52       0.000000000000
 53      -0.000000000000
 54       0.000000000000
 55      -0.003961385873
 56       0.000000000000
 57       0.000000000000
 58       0.005114127171
 59      -0.000000000000
 60       0.000000000000
 61      -0.000000000000
 62      -0.000000000000
 63       0.000000000000
 64      -0.000000000000
 65       0.000000000000
 66      -0.000000000000
 67      -0.000000000000
 68      -0.000000000000
 69       0.000000000000
 70       0.000000000000
 Sym=     1a
 Ene= -4.86746261736817E-01
 Spin= Alpha
 Occup= 1.000000
  1      -0.000000000000
  2       0.000000000000
  3       0.000000000000
  4       0.000000000000
  5       0.000000000000
  6      -0.000000000000
  7       0.000000000000
  8      -0.000000000000
  9      -0.000000000000
 10       0.000000000000
 11       0.261555974133
 12      -0.000000000000
 13       0.000000000000
 14       0.009227735657
 15       0.000000000000
 16      -0.000000000000
 17      -0.100942567893
 18       0.000000000000
 19      -0.000000000000
 20      -0.413508357536
 21      -0.000000000000
 22      -0.000000000000
 23      -0.482793887203
 24       0.000000000000
 25      -0.000000000000
 26      -0.159969160795
 27      -0.000000000000
 28      -0.000000000000
 29       0.000000000000
 30       0.000000000000
 31      -0.000000000000
 32      -0.000000000000
 33       0.000000000000
 34      -0.000000000000
 35      -0.000000000000
 36       0.000000000000
 37      -0.000000000000
 38      -0.000000000000
 39       0.000000000000
 40       0.000000000000
 41       0.000000000000
 42       0.000000000000
 43       0.000000000000
 44      -0.000000000000
 45       0.000000000000
 46      -0.000000000000
 47       0.000000000000
 48      -0.000000000000
 49       0.000000000000
 50      -0.003809348089
 51       0.000000000000
 52       0.000000000000
 53      -0.000000000000
 54      -0.014753541709
 55       0.000000000000
 56      -0.000000000000
 57      -0.001617229010
 58       0.000000000000
 59       0.000000000000
 60       0.000000000000
 61      -0.006263501024
 62       0.000000000000
 63       0.000000000000
 64      -0.000000000000
 65      -0.000000000000
 66      -0.000000000000
 67      -0.000000000000
 68      -0.000000000000
 69      -0.000000000000
 70       0.000000000000
 Sym=     1a
 Ene= -4.15297778106381E-01
 Spin= Alpha
 Occup= 1.000000
  1       0.000000000000
  2       0.000000000000
  3       0.000000000000
  4      -0.000000000000
  5       0.000000000000
  6      -0.000000000000
  7      -0.000000000000
  8      -0.000000000000
  9      -0.000000000000
 10       0.255241246641
 11       0.000000000000
 12       0.000000000000
 13       0.008985041689
 14       0.000000000000
 15      -0.000000000000
 16      -0.104121448949
 17       0.000000000000
 18       0.000000000000
 19      -0.390620252018
 20      -0.000000000000
 21      -0.000000000000
 22      -0.467876754768
 23      -0.000000000000
 24       0.000000000000
 25      -0.205007722472
 26      -0.000000000000
 27      -0.000000000000
 28       0.000000000000
 29       0.000000000000
 30       0.000000000000
 31      -0.000000000000
 32       0.000000000000
 33      -0.000000000000
 34      -0.000000000000
 35      -0.000000000000
 36      -0.000000000000
 37      -0.000000000000
 38       0.000000000000
 39       0.000000000000
 40      -0.000000000000
 41      -0.000000000000
 42       0.000000000000
 43      -0.000000000000
 44       0.000000000000
 45       0.000000000000
 46       0.000000000000
 47       0.000000000000
 48       0.000000000000
 49      -0.012221326062
 50       0.000000000000
 51       0.000000000000
 52      -0.000000000000
 53      -0.015777664102
 54      -0.000000000000
 55      -0.000000000000
 56      -0.004714199379
 57      -0.000000000000
 58       0.000000000000
 59      -0.000000000000
 60      -0.006086005229
 61      -0.000000000000
 62      -0.000000000000
 63       0.000000000000
 64      -0.000000000000
 65       0.000000000000
 66       0.000000000000
 67      -0.000000000000
 68      -0.000000000000
 69       0.000000000000
 70       0.000000000000
 Sym=     1a
 Ene= 2.37359486672046E-01
 Spin= Alpha
 Occup= 0.000000
  1      -0.000000000000
  2      -0.000000000000
  3      -0.000000000000
  4      -0.000000000000
  5       0.000000000000
  6       0.000000000000
  7       0.000000000000
  8       0.000000000000
  9       0.000000000000
 10      -0.000000000000
 11       0.000000000000
 12      -0.127203519725
 13       0.000000000000
 14      -0.000000000000
 15      -0.010602580405
 16      -0.000000000000
 17       0.000000000000
 18       0.156437630866
 19      -0.000000000000
 20      -0.000000000000
 21      -0.129718398430
 22      -0.000000000000
 23       0.000000000000
 24       1.190761575844
 25       0.000000000000
 26      -0.000000000000
 27      -1.571325535363
 28       0.000000000000
 29       0.000000000000
 30       0.000000000000
 31       0.000000000000
 32       0.000000000000
 33      -0.000000000000
 34       0.000000000000
 35      -0.000000000000
 36       0.000000000000
 37       0.000000000000
 38       0.000000000000
 39       0.000000000000
 40      -0.000000000000
 41       0.000000000000
 42      -0.000000000000
 43      -0.000000000000
 44       0.000000000000
 45       0.000000000000
 46      -0.000000000000
 47       0.000000000000
 48       0.000383741331
 49       0.000000000000
 50       0.000000000000
 51      -0.000495407927
 52       0.000000000000
 53       0.000000000000
 54      -0.000000000000
 55       0.002839826142
 56      -0.000000000000
 57      -0.000000000000
 58      -0.003666199784
 59       0.000000000000
 60      -0.000000000000
 61      -0.000000000000
 62       0.000000000000
 63       0.000000000000
 64      -0.000000000000
 65      -0.000000000000
 66      -0.000000000000
 67      -0.000000000000
 68      -0.000000000000
 69       0.000000000000
 70       0.000000000000
 Sym=     1a
 Ene= 2.37359486672068E-01
 Spin= Alpha
 Occup= 0.000000
  1      -0.000000000000
  2       0.000000000000
  3       0.000000000000
  4       0.000000000000
  5      -0.000000000000
  6      -0.000000000000
  7      -0.000000000000
  8      -0.000000000000
  9      -0.000000000000
 10       0.000000000000
 11       0.127203519725
 12      -0.000000000000
 13      -0.000000000000
 14       0.010602580405
 15       0.000000000000
 16      -0.000000000000
 17      -0.156437630866
 18      -0.000000000000
 19      -0.000000000000
 20       0.129718398430
 21       0.000000000000
 22       0.000000000000
 23      -1.190761575844
 24      -0.000000000000
 25      -0.000000000000
 26       1.571325535363
 27       0.000000000000
 28       0.000000000000
 29       0.000000000000
 30       0.000000000000
 31      -0.000000000000
 32       0.000000000000
 33       0.000000000000
 34      -0.000000000000
 35       0.000000000000
 36       0.000000000000
 37       0.000000000000
 38      -0.000000000000
 39      -0.000000000000
 40       0.000000000000
 41       0.000000000000
 42      -0.000000000000
 43       0.000000000000
 44      -0.000000000000
 45       0.000000000000
 46       0.000000000000
 47      -0.000000000000
 48       0.000000000000
 49       0.000000000000
 50      -0.000156661742
 51      -0.000000000000
 52      -0.000000000000
 53      -0.000000000000
 54      -0.000606748318
 55      -0.000000000000
 56      -0.000000000000
 57      -0.001159354168
 58       0.000000000000
 59       0.000000000000
 60      -0.000000000000
 61      -0.004490159384
 62       0.000000000000
 63       0.000000000000
 64      -0.000000000000
 65      -0.000000000000
 66      -0.000000000000
 67      -0.000000000000
 68      -0.000000000000
 69      -0.000000000000
 70       0.000000000000
 Sym=     1a
 Ene= 2.57811207175985E-01
 Spin= Alpha
 Occup= 0.000000
  1      -0.000000000000
  2      -0.000000000000
  3      -0.000000000000
  4      -0.000000000000
  5       0.000000000000
  6       0.000000000000
  7       0.000000000000
  8       0.000000000000
  9       0.000000000000
 10       0.132985853622
 11       0.000000000000
 12      -0.000000000000
 13       0.011140395033
 14      -0.000000000000
 15       0.000000000000
 16      -0.167195441230
 17       0.000000000000
 18      -0.000000000000
 19       0.151869913882
 20      -0.000000000000
 21       0.000000000000
 22      -1.248528185213
 23       0.000000000000
 24      -0.000000000000
 25       1.580705716551
 26      -0.000000000000
 27       0.000000000000
 28       0.000000000000
 29      -0.000000000000
 30       0.000000000000
 31       0.000000000000
 32       0.000000000000
 33      -0.000000000000
 34      -0.000000000000
 35      -0.000000000000
 36      -0.000000000000
 37      -0.000000000000
 38       0.000000000000
 39       0.000000000000
 40      -0.000000000000
 41       0.000000000000
 42      -0.000000000000
 43      -0.000000000000
 44      -0.000000000000
 45       0.000000000000
 46      -0.000000000000
 47      -0.000000000000
 48      -0.000000000000
 49      -0.001295716805
 50       0.000000000000
 51      -0.000000000000
 52      -0.000000000000
 53      -0.001672763202
 54       0.000000000000
 55      -0.000000000000
 56      -0.003577615845
 57       0.000000000000
 58       0.000000000000
 59       0.000000000000
 60      -0.004618682195
 61       0.000000000000
 62       0.000000000000
 63      -0.000000000000
 64      -0.000000000000
 65      -0.000000000000
 66       0.000000000000
 67      -0.000000000000
 68      -0.000000000000
 69      -0.000000000000
 70       0.000000000000
 Sym=     1a
 Ene= 2.90496427328216E-01
 Spin= Alpha
 Occup= 0.000000
  1       0.033972187193
  2       0.021164849257
  3       0.007019908322
  4       0.029508019978
  5      -0.330614253617
  6       0.154074044905
  7      -0.743811043456
  8       2.799406361589
  9      -2.372606724199
 10       0.000000000000
 11      -0.000000000000
 12      -0.000000000000
 13      -0.000000000000
 14       0.000000000000
 15       0.000000000000
 16       0.000000000000
 17      -0.000000000000
 18       0.000000000000
 19      -0.000000000000
 20       0.000000000000
 21       0.000000000000
 22      -0.000000000000
 23      -0.000000000000
 24       0.000000000000
 25       0.000000000000
 26       0.000000000000
 27       0.000000000000
 28       0.000414740898
 29       0.000000000000
 30      -0.000000000000
 31      -0.000718352307
 32      -0.000000000000
 33      -0.001964829068
 34       0.000000000000
 35      -0.000000000000
 36       0.003403183774
 37       0.000000000000
 38       0.017786170378
 39      -0.000000000000
 40       0.000000000000
 41      -0.030806550767
 42       0.000000000000
 43      -0.040175699880
 44      -0.000000000000
 45      -0.000000000000
 46       0.069586353422
 47      -0.000000000000
 48       0.000000000000
 49      -0.000000000000
 50      -0.000000000000
 51       0.000000000000
 52      -0.000000000000
 53      -0.000000000000
 54      -0.000000000000
 55      -0.000000000000
 56      -0.000000000000
 57       0.000000000000
 58      -0.000000000000
 59       0.000000000000
 60       0.000000000000
 61       0.000000000000
 62      -0.000101711521
 63      -0.000000000000
 64      -0.000000000000
 65       0.000151622584
 66      -0.000000000000
 67       0.000000000000
 68       0.000000000000
 69       0.000200577825
 70       0.000000000000
 Sym=     1a
 Ene= 3.50740977122497E-01
 Spin= Alpha
 Occup= 0.000000
  1      -0.000000000000
  2      -0.000000000000
  3      -0.000000000000
  4       0.000000000000
  5      -0.000000000000
  6       0.000000000000
  7      -0.000000000000
  8      -0.000000000000
  9       0.000000000000
 10      -0.000000000000
 11       0.000000000000
 12       0.000000000000
 13       0.000000000000
 14      -0.000000000000
 15      -0.000000000000
 16      -0.000000000000
 17       0.000000000000
 18      -0.000000000000
 19       0.000000000000
 20      -0.000000000000
 21      -0.000000000000
 22       0.000000000000
 23       0.000000000000
 24      -0.000000000000
 25      -0.000000000000
 26       0.000000000000
 27       0.000000000000
 28       0.024310187221
 29      -0.000000000000
 30      -0.000000000000
 31       0.014035493136
 32      -0.000000000000
 33       0.169678132100
 34      -0.000000000000
 35       0.000000000000
 36       0.097963715244
 37       0.000000000000
 38      -0.058941420067
 39       0.000000000000
 40      -0.000000000000
 41      -0.034029844742
 42       0.000000000000
 43       0.838460340507
 44       0.000000000000
 45      -0.000000000000
 46       0.484085303296
 47      -0.000000000000
 48       0.000000000000
 49       0.000000000000
 50       0.000000000000
 51       0.000000000000
 52      -0.000000000000
 53      -0.000000000000
 54      -0.000000000000
 55      -0.000000000000
 56      -0.000000000000
 57       0.000000000000
 58      -0.000000000000
 59      -0.000000000000
 60       0.000000000000
 61       0.000000000000
 62       0.003679567577
 63       0.000000000000
 64      -0.000000000000
 65      -0.003291105292
 66      -0.000000000000
 67       0.000000000000
 68      -0.000000000000
 69       0.004353723071
 70       0.000000000000
 Sym=     1a
 Ene= 3.50740977122674E-01
 Spin= Alpha
 Occup= 0.000000
  1      -0.000000000000
  2       0.000000000000
  3      -0.000000000000
  4       0.000000000000
  5      -0.000000000000
  6       0.000000000000
  7      -0.000000000000
  8       0.000000000000
  9       0.000000000000
 10      -0.000000000000
 11       0.000000000000
 12       0.000000000000
 13       0.000000000000
 14       0.000000000000
 15      -0.000000000000
 16      -0.000000000000
 17      -0.000000000000
 18      -0.000000000000
 19       0.000000000000
 20      -0.000000000000
 21       0.000000000000
 22      -0.000000000000
 23       0.000000000000
 24       0.000000000000
 25       0.000000000000
 26       0.000000000000
 27      -0.000000000000
 28       0.000000000000
 29      -0.000000000000
 30       0.028070986273
 31      -0.000000000000
 32       0.000000000000
 33       0.000000000000
 34      -0.000000000000
 35       0.195927430487
 36      -0.000000000000
 37      -0.000000000000
 38       0.000000000000
 39       0.000000000000
 40      -0.068059689485
 41       0.000000000000
 42       0.000000000000
 43      -0.000000000000
 44       0.000000000000
 45       0.968170606592
 46       0.000000000000
 47       0.000000000000
 48      -0.000000000000
 49      -0.000000000000
 50       0.000000000000
 51       0.000000000000
 52      -0.000000000000
 53      -0.000000000000
 54      -0.000000000000
 55      -0.000000000000
 56       0.000000000000
 57      -0.000000000000
 58       0.000000000000
 59       0.000000000000
 60       0.000000000000
 61       0.000000000000
 62       0.000000000000
 63       0.000000000000
 64       0.002327162870
 65       0.000000000000
 66       0.000000000000
 67       0.000000000000
 68       0.006157094214
 69      -0.000000000000
 70       0.000000000000
 Sym=     1a
 Ene= 3.82367072201121E-01
 Spin= Alpha
 Occup= 0.000000
  1      -0.000000000000
  2       0.000000000000
  3      -0.000000000000
  4       0.000000000000
  5      -0.000000000000
  6      -0.000000000000
  7      -0.000000000000
  8      -0.000000000000
  9      -0.000000000000
 10      -0.000000000000
 11      -0.000000000000
 12       0.000000000000
 13       0.000000000000
 14       0.000000000000
 15      -0.000000000000
 16       0.000000000000
 17      -0.000000000000
 18      -0.000000000000