[Molden Format]
[Title]
 Molden file created by orca_2mkl for BaseName=mol

[Atoms] AU
Co   1  27          0.0000000000         0.0000000000         0.0000000000 
[GTO]
  1 0
s  11 1.0 
  4658206.5032000002         0.6484497803
   697560.8745300000         1.2136126370
   158759.8712400000         2.1022835581
    44969.0993790000         3.4417911091
    14670.7142470000         5.3802600257
     5295.8947250000         8.0357878334
     2065.0581167000        11.3196094630
      855.9062775000        14.5208786780
      372.4874725500        15.7664417048
      168.5057660800        12.5156375283
       78.1287615660         5.4507094233
s   4 1.0 
     1534.5149885000         1.3274078146
      475.5297609600         5.4043759657
      182.5483683900        12.0036280532
       78.9164671770        11.9164609771
s   1 1.0 
       35.5008655220        10.3654771426
s   1 1.0 
       16.7904144860         5.9116151729
s   1 1.0 
        8.0240232510         3.3978501822
s   1 1.0 
        3.4571682964         1.8069680911
s   1 1.0 
        1.6599835391         1.0422884575
s   1 1.0 
        0.7338002245         0.5650585783
s   1 1.0 
        0.1587861310         0.1792749117
s   1 1.0 
        0.0745356595         0.1016677392
s   1 1.0 
        0.0328673517         0.0550153178
p   9 1.0 
     8425.4331352000        20.1608187243
     1995.8758452000        29.2938258266
      647.7676568100        40.0133110052
      246.8826121400        49.3189092311
      104.0095224600        52.4068214946
       46.8274781380        44.0084852150
       21.9344445350        25.8975016709
       10.5404995280         8.3922921019
        4.9820419385         0.9292609861
p   5 1.0 
       69.2707871300        -1.3772466453
       24.5839779350        -1.8288671027
        4.8562258878         2.3685313601
        2.2480916102         1.8802656672
        1.0114285977         0.5605860646
p   1 1.0 
        0.4191990546         0.4808011038
p   1 1.0 
        0.1750000000         0.1613383640
p   1 1.0 
        0.0730000000         0.0540870958
p   1 1.0 
        0.0300000000         0.0177967892
d   6 1.0 
      237.5845096600        64.0649019422
       71.0868963020        66.2957805806
       27.1190806830        55.8545343749
       11.4482390540        37.4864575189
        5.1391806672        19.0964332816
        2.3323492099         6.6737500199
d   1 1.0 
        1.0338662062         3.0219180191
d   1 1.0 
        0.4378514629         0.6718804314
d   1 1.0 
        0.1689500495         0.1269249934
d   1 1.0 
        0.0660000000         0.0245003321
f   1 1.0 
        5.9750000000       318.2441109543
f   1 1.0 
        1.9030000000        24.2514300413
f   1 1.0 
        0.5940000000         1.7661174454
g   1 1.0 
        2.5000000000        81.8096380788

[5D]
[9G]
[MO]
 Sym=     1a
 Ene= -2.82856921078641E+02
 Spin= Alpha
 Occup= 1.000000
  1       0.954817877515
  2      -0.000327203915
  3       0.067206593105
  4      -0.000862586912
  5       0.001728575256
  6      -0.000812488909
  7       0.000369643219
  8      -0.000142681942
  9       0.000050307981
 10      -0.000038803613
 11       0.000012127242
 12      -0.000000000000
 13       0.000000000000
 14       0.000000000000
 15      -0.000000000000
 16      -0.000000000000
 17       0.000000000000
 18       0.000000000000
 19       0.000000000000
 20      -0.000000000000
 21      -0.000000000000
 22      -0.000000000000
 23       0.000000000000
 24       0.000000000000
 25       0.000000000000
 26      -0.000000000000
 27      -0.000000000000
 28      -0.000000000000
 29      -0.000000000000
 30      -0.000000000000
 31      -0.000000000000
 32       0.000000000000
 33       0.000000000000
 34       0.000000000000
 35       0.000000000000
 36       0.000000000000
 37      -0.000000000000
 38      -0.000000000000
 39       0.000000000000
 40      -0.000000000000
 41      -0.000000000000
 42      -0.000000000000
 43       0.000000000000
 44      -0.000000000000
 45       0.000000000000
 46      -0.000000000000
 47      -0.000000000000
 48      -0.000000000000
 49      -0.000000000000
 50      -0.000000000000
 51      -0.000000000000
 52       0.000000000000
 53       0.000000000000
 54      -0.000000000000
 55      -0.000000000000
 56      -0.000000000000
 57       0.000000000000
 58       0.000000000000
 59       0.000000000000
 60       0.000000000000
 61       0.000000000000
 62      -0.000000000000
 63       0.000000000000
 64       0.000000000000
 65      -0.000000000000
 66      -0.000000000000
 67      -0.000000000000
 68      -0.000000000000
 69      -0.000000000000
 70      -0.000000000000
 71      -0.000000000000
 72      -0.000000000000
 73      -0.000000000000
 74       0.000000000000
 75       0.000000000000
 76      -0.000000049963
 77      -0.000000000000
 78      -0.000000000000
 79      -0.000000000000
 80      -0.000000000000
 81       0.000000000000
 82      -0.000000000000
 83       0.000000042227
 84       0.000000000000
 Sym=     1a
 Ene= -3.46659994185788E+01
 Spin= Alpha
 Occup= 1.000000
  1      -0.293916664753
  2      -0.178321311109
  3       0.050380363568
  4       0.526136872236
  5       0.498121043800
  6       0.085957207759
  7      -0.003676681111
  8       0.002619039277
  9      -0.000532580726
 10       0.000420207084
 11      -0.000131190542
 12       0.000000000000
 13       0.000000000000
 14      -0.000000000000
 15      -0.000000000000
 16       0.000000000000
 17       0.000000000000
 18      -0.000000000000
 19      -0.000000000000
 20       0.000000000000
 21       0.000000000000
 22       0.000000000000
 23      -0.000000000000
 24      -0.000000000000
 25      -0.000000000000
 26       0.000000000000
 27       0.000000000000
 28       0.000000000000
 29      -0.000000000000
 30       0.000000000000
 31      -0.000000000000
 32      -0.000000000000
 33       0.000000000000
 34       0.000000000000
 35      -0.000000000000
 36      -0.000000000000
 37       0.000000000000
 38       0.000000000000
 39       0.000000000000
 40       0.000000000000
 41      -0.000000000000
 42       0.000000000000
 43      -0.000000000000
 44       0.000000000000
 45      -0.000000000000
 46      -0.000000000000
 47      -0.000000000000
 48       0.000000000000
 49      -0.000000000000
 50       0.000000000000
 51       0.000000000000
 52      -0.000000000000
 53      -0.000000000000
 54       0.000000000000
 55       0.000000000000
 56       0.000000000000
 57      -0.000000000000
 58      -0.000000000000
 59      -0.000000000000
 60       0.000000000000
 61      -0.000000000000
 62      -0.000000000000
 63      -0.000000000000
 64      -0.000000000000
 65       0.000000000000
 66      -0.000000000000
 67      -0.000000000000
 68      -0.000000000000
 69       0.000000000000
 70       0.000000000000
 71       0.000000000000
 72       0.000000000000
 73      -0.000000000000
 74       0.000000000000
 75      -0.000000000000
 76       0.000076333934
 77      -0.000000000000
 78      -0.000000000000
 79      -0.000000000000
 80      -0.000000000000
 81       0.000000000000
 82       0.000000000000
 83      -0.000064513949
 84       0.000000000000
 Sym=     1a
 Ene= -2.99208588754638E+01
 Spin= Alpha
 Occup= 1.000000
  1      -0.000000000000
  2       0.000000000000
  3       0.000000000000
  4       0.000000000000
  5      -0.000000000000
  6       0.000000000000
  7       0.000000000000
  8      -0.000000000000
  9       0.000000000000
 10      -0.000000000000
 11      -0.000000000000
 12       0.997524683174
 13       0.000000000000
 14      -0.000000000000
 15       0.007041651865
 16       0.000000000000
 17      -0.000000000000
 18      -0.001166422250
 19       0.000000000000
 20      -0.000000000000
 21       0.000864147150
 22      -0.000000000000
 23       0.000000000000
 24      -0.000424650895
 25      -0.000000000000
 26       0.000000000000
 27       0.000134034181
 28      -0.000000000000
 29       0.000000000000
 30      -0.000000000000
 31       0.000000000000
 32       0.000000000000
 33       0.000000000000
 34       0.000000000000
 35       0.000000000000
 36       0.000000000000
 37      -0.000000000000
 38       0.000000000000
 39       0.000000000000
 40       0.000000000000
 41       0.000000000000
 42       0.000000000000
 43      -0.000000000000
 44      -0.000000000000
 45      -0.000000000000
 46      -0.000000000000
 47      -0.000000000000
 48      -0.000000000000
 49       0.000000000000
 50       0.000000000000
 51       0.000000000000
 52       0.000000000000
 53      -0.000000000000
 54       0.000000000000
 55      -0.000000000000
 56      -0.000154466896
 57       0.000000000000
 58      -0.000000000000
 59      -0.000000000000
 60      -0.000199415905
 61      -0.000000000000
 62       0.000000000000
 63       0.000019276582
 64       0.000000000000
 65      -0.000000000000
 66      -0.000000000000
 67       0.000024885960
 68       0.000000000000
 69      -0.000000000000
 70      -0.000008383970
 71      -0.000000000000
 72      -0.000000000000
 73       0.000000000000
 74      -0.000010823658
 75      -0.000000000000
 76       0.000000000000
 77      -0.000000000000
 78      -0.000000000000
 79       0.000000000000
 80       0.000000000000
 81       0.000000000000
 82      -0.000000000000
 83      -0.000000000000
 84       0.000000000000
 Sym=     1a
 Ene= -2.99208588754634E+01
 Spin= Alpha
 Occup= 1.000000
  1      -0.000000000000
  2       0.000000000000
  3      -0.000000000000
  4       0.000000000000
  5      -0.000000000000
  6       0.000000000000
  7       0.000000000000
  8      -0.000000000000
  9       0.000000000000
 10      -0.000000000000
 11      -0.000000000000
 12       0.000000000000
 13       0.000000000000
 14      -0.997524683174
 15       0.000000000000
 16       0.000000000000
 17      -0.007041651865
 18       0.000000000000
 19       0.000000000000
 20       0.001166422250
 21      -0.000000000000
 22      -0.000000000000
 23      -0.000864147150
 24      -0.000000000000
 25      -0.000000000000
 26       0.000424650895
 27      -0.000000000000
 28      -0.000000000000
 29      -0.000134034181
 30       0.000000000000
 31       0.000000000000
 32       0.000000000000
 33       0.000000000000
 34      -0.000000000000
 35      -0.000000000000
 36      -0.000000000000
 37      -0.000000000000
 38       0.000000000000
 39       0.000000000000
 40       0.000000000000
 41       0.000000000000
 42       0.000000000000
 43       0.000000000000
 44      -0.000000000000
 45      -0.000000000000
 46      -0.000000000000
 47      -0.000000000000
 48      -0.000000000000
 49       0.000000000000
 50      -0.000000000000
 51       0.000000000000
 52       0.000000000000
 53      -0.000000000000
 54       0.000000000000
 55      -0.000252243385
 56       0.000000000000
 57       0.000000000000
 58      -0.000000000000
 59      -0.000000000000
 60       0.000000000000
 61       0.000000000000
 62       0.000031478526
 63      -0.000000000000
 64      -0.000000000000
 65       0.000000000000
 66       0.000000000000
 67      -0.000000000000
 68      -0.000000000000
 69      -0.000013690965
 70       0.000000000000
 71       0.000000000000
 72      -0.000000000000
 73      -0.000000000000
 74       0.000000000000
 75       0.000000000000
 76       0.000000000000
 77      -0.000000000000
 78      -0.000000000000
 79       0.000000000000
 80       0.000000000000
 81       0.000000000000
 82      -0.000000000000
 83      -0.000000000000
 84       0.000000000000
 Sym=     1a
 Ene= -2.99208588754628E+01
 Spin= Alpha
 Occup= 1.000000
  1       0.000000000000
  2      -0.000000000000
  3      -0.000000000000
  4      -0.000000000000
  5       0.000000000000
  6      -0.000000000000
  7      -0.000000000000
  8       0.000000000000
  9      -0.000000000000
 10       0.000000000000
 11      -0.000000000000
 12       0.000000000000
 13       0.997524683174
 14      -0.000000000000
 15       0.000000000000
 16       0.007041651865
 17      -0.000000000000
 18       0.000000000000
 19      -0.001166422250
 20      -0.000000000000
 21      -0.000000000000
 22       0.000864147150
 23       0.000000000000
 24      -0.000000000000
 25      -0.000424650895
 26       0.000000000000
 27      -0.000000000000
 28       0.000134034181
 29       0.000000000000
 30      -0.000000000000
 31      -0.000000000000
 32       0.000000000000
 33      -0.000000000000
 34      -0.000000000000
 35       0.000000000000
 36       0.000000000000
 37      -0.000000000000
 38      -0.000000000000
 39      -0.000000000000
 40       0.000000000000
 41      -0.000000000000
 42       0.000000000000
 43      -0.000000000000
 44      -0.000000000000
 45       0.000000000000
 46       0.000000000000
 47      -0.000000000000
 48       0.000000000000
 49      -0.000000000000
 50      -0.000000000000
 51      -0.000000000000
 52       0.000000000000
 53       0.000000000000
 54      -0.000000000000
 55       0.000000000000
 56      -0.000000000000
 57      -0.000154466896
 58       0.000000000000
 59      -0.000000000000
 60      -0.000000000000
 61       0.000199415905
 62      -0.000000000000
 63       0.000000000000
 64       0.000019276582
 65      -0.000000000000
 66       0.000000000000
 67      -0.000000000000
 68      -0.000024885960
 69      -0.000000000000
 70      -0.000000000000
 71      -0.000008383970
 72      -0.000000000000
 73      -0.000000000000
 74       0.000000000000
 75       0.000010823658
 76       0.000000000000
 77      -0.000000000000
 78      -0.000000000000
 79       0.000000000000
 80       0.000000000000
 81      -0.000000000000
 82      -0.000000000000
 83      -0.000000000000
 84       0.000000000000
 Sym=     1a
 Ene= -4.39309406817250E+00
 Spin= Alpha
 Occup= 1.000000
  1      -0.108801807965
  2      -0.078128749180
  3       0.019943651680
  4       0.319920225856
  5       0.451255784623
  6      -0.163113670873
  7      -0.707640126531
  8      -0.389941655025
  9      -0.021941719417
 10       0.010737553744
 11      -0.002914242120
 12       0.000000000000
 13       0.000000000000
 14      -0.000000000000
 15      -0.000000000000
 16       0.000000000000
 17      -0.000000000000
 18      -0.000000000000
 19      -0.000000000000
 20       0.000000000000
 21       0.000000000000
 22       0.000000000000
 23      -0.000000000000
 24      -0.000000000000
 25      -0.000000000000
 26       0.000000000000
 27       0.000000000000
 28       0.000000000000
 29      -0.000000000000
 30       0.000000000000
 31      -0.000000000000
 32      -0.000000000000
 33       0.000000000000
 34       0.000000000000
 35       0.000000000000
 36       0.000000000000
 37       0.000000000000
 38       0.000000000000
 39       0.000000000000
 40      -0.000000000000
 41      -0.000000000000
 42       0.000000000000
 43      -0.000000000000
 44      -0.000000000000
 45       0.000000000000
 46      -0.000000000000
 47      -0.000000000000
 48       0.000000000000
 49      -0.000000000000
 50      -0.000000000000
 51       0.000000000000
 52      -0.000000000000
 53      -0.000000000000
 54      -0.000000000000
 55       0.000000000000
 56      -0.000000000000
 57       0.000000000000
 58      -0.000000000000
 59      -0.000000000000
 60       0.000000000000
 61      -0.000000000000
 62      -0.000000000000
 63       0.000000000000
 64      -0.000000000000
 65       0.000000000000
 66       0.000000000000
 67       0.000000000000
 68      -0.000000000000
 69       0.000000000000
 70      -0.000000000000
 71       0.000000000000
 72       0.000000000000
 73      -0.000000000000
 74       0.000000000000
 75      -0.000000000000
 76      -0.002177983306
 77      -0.000000000000
 78       0.000000000000
 79      -0.000000000000
 80       0.000000000000
 81      -0.000000000000
 82       0.000000000000
 83       0.001840731858
 84       0.000000000000
 Sym=     1a
 Ene= -2.90748701742488E+00
 Spin= Alpha
 Occup= 1.000000
  1      -0.000000000000
  2       0.000000000000
  3       0.000000000000
  4       0.000000000000
  5      -0.000000000000
  6       0.000000000000
  7       0.000000000000
  8      -0.000000000000
  9      -0.000000000000
 10       0.000000000000
 11      -0.000000000000
 12      -0.370932100008
 13       0.000000000000
 14      -0.000000000000
 15       1.002264171688
 16       0.000000000000
 17      -0.000000000000
 18       0.103123426895
 19       0.000000000000
 20      -0.000000000000
 21      -0.002077836651
 22       0.000000000000
 23      -0.000000000000
 24       0.004245428551
 25      -0.000000000000
 26       0.000000000000
 27      -0.001105902359
 28      -0.000000000000
 29       0.000000000000
 30      -0.000000000000
 31      -0.000000000000
 32       0.000000000000
 33       0.000000000000
 34       0.000000000000
 35       0.000000000000
 36      -0.000000000000
 37      -0.000000000000
 38       0.000000000000
 39      -0.000000000000
 40       0.000000000000
 41       0.000000000000
 42       0.000000000000
 43      -0.000000000000
 44      -0.000000000000
 45      -0.000000000000
 46      -0.000000000000
 47      -0.000000000000
 48      -0.000000000000
 49       0.000000000000
 50      -0.000000000000
 51      -0.000000000000
 52       0.000000000000
 53      -0.000000000000
 54      -0.000000000000
 55       0.000000000000
 56      -0.000683955803
 57      -0.000000000000
 58       0.000000000000
 59      -0.000000000000
 60      -0.000882983145
 61      -0.000000000000
 62      -0.000000000000
 63      -0.001899253384
 64       0.000000000000
 65       0.000000000000
 66       0.000000000000
 67      -0.002451925576
 68      -0.000000000000
 69      -0.000000000000
 70      -0.000309353352
 71       0.000000000000
 72       0.000000000000
 73       0.000000000000
 74      -0.000399373460
 75      -0.000000000000
 76       0.000000000000
 77      -0.000000000000
 78      -0.000000000000
 79       0.000000000000
 80      -0.000000000000
 81       0.000000000000
 82      -0.000000000000
 83       0.000000000000
 84       0.000000000000
 Sym=     1a
 Ene= -2.90748701742484E+00
 Spin= Alpha
 Occup= 1.000000
  1      -0.000000000000
  2       0.000000000000
  3       0.000000000000
  4      -0.000000000000
  5      -0.000000000000
  6       0.000000000000
  7       0.000000000000
  8      -0.000000000000
  9       0.000000000000
 10       0.000000000000
 11      -0.000000000000
 12       0.000000000000
 13       0.000000000000
 14       0.370932100008
 15       0.000000000000
 16       0.000000000000
 17      -1.002264171688
 18       0.000000000000
 19       0.000000000000
 20      -0.103123426895
 21      -0.000000000000
 22       0.000000000000
 23       0.002077836651
 24      -0.000000000000
 25      -0.000000000000
 26      -0.004245428551
 27      -0.000000000000
 28      -0.000000000000
 29       0.001105902359
 30      -0.000000000000
 31       0.000000000000
 32       0.000000000000
 33       0.000000000000
 34       0.000000000000
 35       0.000000000000
 36      -0.000000000000
 37       0.000000000000
 38       0.000000000000
 39       0.000000000000
 40       0.000000000000
 41       0.000000000000
 42       0.000000000000
 43       0.000000000000
 44      -0.000000000000
 45      -0.000000000000
 46      -0.000000000000
 47      -0.000000000000
 48      -0.000000000000
 49       0.000000000000
 50      -0.000000000000
 51      -0.000000000000
 52       0.000000000000
 53      -0.000000000000
 54      -0.000000000000
 55      -0.001116895149
 56      -0.000000000000
 57      -0.000000000000
 58      -0.000000000000
 59       0.000000000000
 60      -0.000000000000
 61      -0.000000000000
 62      -0.003101467789
 63       0.000000000000
 64       0.000000000000
 65       0.000000000000
 66      -0.000000000000
 67       0.000000000000
 68       0.000000000000
 69      -0.000505171909
 70      -0.000000000000
 71       0.000000000000
 72      -0.000000000000
 73       0.000000000000
 74       0.000000000000
 75      -0.000000000000
 76      -0.000000000000
 77      -0.000000000000
 78      -0.000000000000
 79       0.000000000000
 80      -0.000000000000
 81       0.000000000000
 82      -0.000000000000
 83      -0.000000000000
 84       0.000000000000
 Sym=     1a
 Ene= -2.90748701742476E+00
 Spin= Alpha
 Occup= 1.000000
  1       0.000000000000
  2      -0.000000000000
  3       0.000000000000
  4      -0.000000000000
  5       0.000000000000
  6      -0.000000000000
  7      -0.000000000000
  8       0.000000000000
  9      -0.000000000000
 10       0.000000000000
 11      -0.000000000000
 12       0.000000000000
 13      -0.370932100008
 14      -0.000000000000
 15       0.000000000000
 16       1.002264171688
 17      -0.000000000000
 18       0.000000000000
 19       0.103123426895
 20      -0.000000000000
 21      -0.000000000000
 22      -0.002077836651
 23       0.000000000000
 24      -0.000000000000
 25       0.004245428551
 26       0.000000000000
 27      -0.000000000000
 28      -0.001105902359
 29       0.000000000000
 30      -0.000000000000
 31      -0.000000000000
 32      -0.000000000000
 33      -0.000000000000
 34      -0.000000000000
 35       0.000000000000
 36       0.000000000000
 37       0.000000000000
 38       0.000000000000
 39      -0.000000000000
 40      -0.000000000000
 41      -0.000000000000
 42      -0.000000000000
 43       0.000000000000
 44       0.000000000000
 45       0.000000000000
 46       0.000000000000
 47       0.000000000000
 48       0.000000000000
 49      -0.000000000000
 50       0.000000000000
 51       0.000000000000
 52      -0.000000000000
 53       0.000000000000
 54       0.000000000000
 55       0.000000000000
 56      -0.000000000000
 57      -0.000683955803
 58      -0.000000000000
 59      -0.000000000000
 60       0.000000000000
 61       0.000882983145
 62      -0.000000000000
 63       0.000000000000
 64      -0.001899253384
 65       0.000000000000
 66       0.000000000000
 67      -0.000000000000
 68       0.002451925576
 69      -0.000000000000
 70      -0.000000000000
 71      -0.000309353352
 72       0.000000000000
 73       0.000000000000
 74      -0.000000000000
 75       0.000399373460
 76       0.000000000000
 77      -0.000000000000
 78       0.000000000000
 79       0.000000000000
 80       0.000000000000
 81       0.000000000000
 82      -0.000000000000
 83      -0.000000000000
 84       0.000000000000
 Sym=     1a
 Ene= -4.98784908830993E-01
 Spin= Alpha
 Occup= 1.000000
  1      -0.000000000000
  2       0.000000000000
  3      -0.000000000000
  4       0.000000000000
  5      -0.000000000000
  6       0.000000000000
  7      -0.000000000000
  8       0.000000000000
  9       0.000000000000
 10      -0.000000000000
 11       0.000000000000
 12      -0.000000000000
 13       0.000000000000
 14       0.000000000000
 15      -0.000000000000
 16       0.000000000000
 17       0.000000000000
 18       0.000000000000
 19      -0.000000000000
 20       0.000000000000
 21      -0.000000000000
 22      -0.000000000000
 23       0.000000000000
 24      -0.000000000000
 25       0.000000000000
 26      -0.000000000000
 27       0.000000000000
 28      -0.000000000000
 29      -0.000000000000
 30       0.005966646061
 31      -0.000000000000
 32      -0.000000000000
 33      -0.596127332981
 34       0.000000000000
 35       0.003231668083
 36      -0.000000000000
 37       0.000000000000
 38      -0.322875809278
 39      -0.000000000000
 40       0.002451901846
 41       0.000000000000
 42      -0.000000000000
 43      -0.244969400416
 44       0.000000000000
 45       0.001116546486
 46      -0.000000000000
 47      -0.000000000000
 48      -0.111554107967
 49       0.000000000000
 50       0.000108506219
 51       0.000000000000
 52      -0.000000000000
 53      -0.010840851301
 54      -0.000000000000
 55      -0.000000000000
 56      -0.000000000000
 57       0.000000000000
 58       0.000000000000
 59      -0.000000000000
 60      -0.000000000000
 61      -0.000000000000
 62       0.000000000000
 63      -0.000000000000
 64      -0.000000000000
 65      -0.000000000000
 66       0.000000000000
 67       0.000000000000
 68      -0.000000000000
 69      -0.000000000000
 70       0.000000000000
 71       0.000000000000
 72       0.000000000000
 73      -0.000000000000
 74      -0.000000000000
 75       0.000000000000
 76       0.000015371177
 77      -0.000000000000
 78       0.000000000000
 79       0.002379148318
 80       0.000000000000
 81      -0.000000000000
 82       0.000000000000
 83       0.000018187422
 84       0.000000000000
 Sym=     1a
 Ene= -4.98784908830732E-01
 Spin= Alpha
 Occup= 1.000000
  1       0.000000000000
  2      -0.000000000000
  3       0.000000000000
  4      -0.000000000000
  5       0.000000000000
  6      -0.000000000000
  7       0.000000000000
  8      -0.000000000000
  9       0.000000000000
 10      -0.000000000000
 11       0.000000000000
 12       0.000000000000
 13      -0.000000000000
 14      -0.000000000000
 15      -0.000000000000
 16      -0.000000000000
 17      -0.000000000000
 18       0.000000000000
 19      -0.000000000000
 20      -0.000000000000
 21      -0.000000000000
 22       0.000000000000
 23      -0.000000000000
 24       0.000000000000
 25      -0.000000000000
 26       0.000000000000
 27      -0.000000000000
 28       0.000000000000
 29      -0.000000000000
 30       0.596127332980
 31      -0.000000000000
 32      -0.000000000000
 33       0.005966646061
 34       0.000000000000
 35       0.322875809278
 36       0.000000000000
 37       0.000000000000
 38       0.003231668083
 39       0.000000000000
 40       0.244969400416
 41       0.000000000000
 42      -0.000000000000
 43       0.002451901846
 44      -0.000000000000
 45       0.111554107967
 46       0.000000000000
 47       0.000000000000
 48       0.001116546486
 49       0.000000000000
 50       0.010840851301
 51      -0.000000000000
 52      -0.000000000000
 53       0.000108506219
 54       0.000000000000
 55      -0.000000000000
 56       0.000000000000
 57       0.000000000000
 58      -0.000000000000
 59       0.000000000000
 60      -0.000000000000
 61      -0.000000000000
 62       0.000000000000
 63       0.000000000000
 64       0.000000000000
 65       0.000000000000
 66      -0.000000000000
 67      -0.000000000000
 68      -0.000000000000
 69      -0.000000000000
 70      -0.000000000000
 71       0.000000000000
 72      -0.000000000000
 73       0.000000000000
 74       0.000000000000
 75      -0.000000000000
 76       0.001535733635
 77      -0.000000000000
 78       0.000000000000
 79      -0.000023812926
 80      -0.000000000000
 81      -0.000000000000
 82      -0.000000000000
 83       0.001817104543
 84       0.000000000000
 Sym=     1a
 Ene= -4.46314401680170E-01
 Spin= Alpha
 Occup= 1.000000
  1      -0.000000000000
  2       0.000000000000
  3      -0.000000000000
  4      -0.000000000000
  5       0.000000000000
  6      -0.000000000000
  7       0.000000000000
  8       0.000000000000
  9      -0.000000000000
 10       0.000000000000
 11      -0.000000000000
 12      -0.000000000000
 13      -0.000000000000
 14       0.000000000000
 15       0.000000000000
 16      -0.000000000000
 17       0.000000000000
 18      -0.000000000000
 19      -0.000000000000
 20       0.000000000000
 21       0.000000000000
 22       0.000000000000
 23       0.000000000000
 24      -0.000000000000
 25      -0.000000000000
 26      -0.000000000000
 27       0.000000000000
 28       0.000000000000
 29      -0.000000000000
 30      -0.000000000000
 31      -0.586756208179
 32       0.000000000000
 33      -0.000000000000
 34       0.000000000000
 35       0.000000000000
 36      -0.317798101174
 37      -0.000000000000
 38      -0.000000000000
 39      -0.000000000000
 40       0.000000000000
 41      -0.252081152750
 42       0.000000000000
 43       0.000000000000
 44       0.000000000000
 45      -0.000000000000
 46      -0.126142842198
 47       0.000000000000
 48      -0.000000000000
 49       0.000000000000
 50       0.000000000000
 51      -0.016898581210
 52      -0.000000000000
 53       0.000000000000
 54       0.000000000000
 55      -0.000000000000
 56       0.000000000000
 57       0.000000000000
 58       0.000000000000
 59       0.000000000000
 60      -0.000000000000
 61      -0.000000000000
 62       0.000000000000
 63       0.000000000000
 64       0.000000000000
 65      -0.000000000000
 66       0.000000000000
 67      -0.000000000000
 68       0.000000000000
 69       0.000000000000
 70      -0.000000000000
 71      -0.000000000000
 72       0.000000000000
 73      -0.000000000000
 74       0.000000000000
 75       0.000000000000
 76       0.000000000000
 77      -0.000420285060
 78       0.000000000000
 79      -0.000000000000
 80      -0.000000000000
 81       0.001111969749
 82       0.000000000000
 83       0.000000000000
 84       0.000000000000
 Sym=     1a
 Ene= -4.46314401680159E-01
 Spin= Alpha
 Occup= 1.000000
  1       0.000000000000
  2       0.000000000000
  3      -0.000000000000
  4       0.000000000000
  5      -0.000000000000
  6       0.000000000000
  7      -0.000000000000
  8      -0.000000000000
  9       0.000000000000
 10      -0.000000000000
 11      -0.000000000000
 12       0.000000000000
 13       0.000000000000
 14      -0.000000000000
 15       0.000000000000
 16       0.000000000000
 17       0.000000000000
 18       0.000000000000
 19      -0.000000000000
 20      -0.000000000000
 21      -0.000000000000
 22       0.000000000000
 23       0.000000000000
 24       0.000000000000
 25      -0.000000000000
 26       0.000000000000
 27       0.000000000000
 28      -0.000000000000
 29       0.000000000000
 30      -0.000000000000
 31       0.000000000000
 32       0.000000000000
 33      -0.000000000000
 34      -0.586756208179
 35       0.000000000000
 36      -0.000000000000
 37      -0.000000000000
 38       0.000000000000
 39      -0.317798101174
 40      -0.000000000000
 41       0.000000000000