
                                 *****************
                                 * O   R   C   A *
                                 *****************

           --- An Ab Initio, DFT and Semiempirical electronic structure package ---

                  #######################################################
                  #                        -***-                        #
                  #  Department of molecular theory and spectroscopy    #
                  #              Directorship: Frank Neese              #
                  # Max Planck Institute for Chemical Energy Conversion #
                  #                  D-45470 Muelheim/Ruhr              #
                  #                       Germany                       #
                  #                                                     #
                  #                  All rights reserved                #
                  #                        -***-                        #
                  #######################################################


                         Program Version 4.0.1.2 - RELEASE -


 With contributions from (in alphabetic order):
   Daniel Aravena         : Magnetic Properties
   Michael Atanasov       : Ab Initio Ligand Field Theory
   Ute Becker             : Parallelization
   Martin Brehm           : Molecular dynamics
   Dmytro Bykov           : SCF Hessian
   Vijay G. Chilkuri      : MRCI spin determinant printing
   Dipayan Datta          : RHF DLPNO-CCSD density
   Achintya Kumar Dutta   : EOM-CC, STEOM-CC
   Dmitry Ganyushin       : Spin-Orbit,Spin-Spin,Magnetic field MRCI
   Yang Guo               : DLPNO-NEVPT2, CIM, IAO-localization
   Andreas Hansen         : Spin unrestricted coupled pair/coupled cluster methods
   Lee Huntington         : MR-EOM, pCC
   Robert Izsak           : Overlap fitted RIJCOSX, COSX-SCS-MP3, EOM
   Christian Kollmar      : KDIIS, OOCD, Brueckner-CCSD(T), CCSD density
   Simone Kossmann        : Meta GGA functionals, TD-DFT gradient, OOMP2, MP2 Hessian
   Martin Krupicka        : AUTO-CI
   Dagmar Lenk            : GEPOL surface
   Dimitrios Liakos       : Extrapolation schemes; parallel MDCI
   Dimitrios Manganas     : ROCIS; embedding schemes
   Dimitrios Pantazis     : SARC Basis sets
   Taras Petrenko         : DFT Hessian,TD-DFT gradient, ASA, ECA, R-Raman, ABS, FL, XAS/XES, NRVS
   Peter Pinski           : DLPNO-MP2
   Christoph Reimann      : Effective Core Potentials
   Marius Retegan         : Local ZFS, SOC
   Christoph Riplinger    : Optimizer, TS searches, QM/MM, DLPNO-CCSD(T), (RO)-DLPNO pert. Triples
   Tobias Risthaus        : Range-separated hybrids, TD-DFT gradient, RPA, STAB
   Michael Roemelt        : Restricted open shell CIS
   Masaaki Saitow         : Open-shell DLPNO
   Barbara Sandhoefer     : DKH picture change effects
   Kantharuban Sivalingam : CASSCF convergence, NEVPT2, FIC-MRCI
   Georgi Stoychev        : AutoAux
   Boris Wezisla          : Elementary symmetry handling
   Frank Wennmohs         : Technical directorship


 We gratefully acknowledge several colleagues who have allowed us to
 interface, adapt or use parts of their codes:
   Stefan Grimme, W. Hujo, H. Kruse,             : VdW corrections, initial TS optimization,
                  C. Bannwarth                     DFT functionals, gCP, sTDA/sTD-DF
   Ed Valeev                                     : LibInt (2-el integral package), F12 methods
   Garnet Chan, S. Sharma, J. Yang, R. Olivares  : DMRG
   Ulf Ekstrom                                   : XCFun DFT Library
   Mihaly Kallay                                 : mrcc  (arbitrary order and MRCC methods)
   Andreas Klamt, Michael Diedenhofen            : otool_cosmo (COSMO solvation model)
   Jiri Pittner, Ondrej Demel                    : Mk-CCSD
   Frank Weinhold                                : gennbo (NPA and NBO analysis)
   Christopher J. Cramer and Donald G. Truhlar   : smd solvation model


 Your calculation uses the libint2 library for the computation of 2-el integrals
 For citations please refer to: http://libint.valeyev.net

 This ORCA versions uses:
   CBLAS   interface :  Fast vector & matrix operations
   LAPACKE interface :  Fast linear algebra routines
   SCALAPACK package :  Parallel linear algebra routines




*****************************************
The coordinations will be read from file: ../../../../chem_database/B.xyz
*****************************************


Your calculation utilizes the basis: cc-pVQZ 
       H, B-Ne : Obtained from the ccRepo (grant-hill.group.shef.ac.uk/ccrepo) Feb. 2017
                 T. H. Dunning, Jr., J. Chem. Phys. 90, 1007 (1989)
            He : Obtained from the ccRepo (grant-hill.group.shef.ac.uk/ccrepo) Feb. 2017
                 D. E. Woon, T. H. Dunning, Jr., J. Chem. Phys. 100, 2975 (1994)
  Li-Be, Na-Mg : Obtained from the ccRepo (grant-hill.group.shef.ac.uk/ccrepo) Feb. 2017
                 B. P. Prascher, D. E. Woon, K. A. Peterson, T. H. Dunning, Jr., A. K. Wilson, Theor. Chem. Acc. 128, 69 (2011)
         Al-Ar : Obtained from the ccRepo (grant-hill.group.shef.ac.uk/ccrepo) Feb. 2017
                 D. E. Woon, T. H. Dunning, Jr., J. Chem. Phys. 98, 1358 (1993)
            Ca : Obtained from the Peterson Research Group Website (tyr0.chem.wsu.edu/~kipeters) Feb. 2017
                 J. Koput, K. A. Peterson, J. Phys. Chem. 106, 9595 (2002)
         Sc-Zn : Obtained from the ccRepo (grant-hill.group.shef.ac.uk/ccrepo) Feb. 2017
                 N. B. Balabanov, K. A. Peterson, J. Chem. Phys. 123, 064107 (2005)
                 N. B. Balabanov, K. A. Peterson, J. Chem. Phys. 125, 074110 (2006)
         Ga-Kr : Obtained from the ccRepo (grant-hill.group.shef.ac.uk/ccrepo) Feb. 2017
                 A. K. Wilson, D. E. Woon, K. A. Peterson, T. H. Dunning, Jr., J. Chem. Phys. 110, 7667 (1999)

================================================================================
                                        WARNINGS
                       Please study these warnings very carefully!
================================================================================

Warning: TCutStore was < 0. Adjusted to Thresh (uncritical)

WARNING: your system is open-shell and RHF/RKS was chosen
  ===> : WILL SWITCH to UHF/UKS


INFO   : the flag for use of LIBINT has been found!

================================================================================
                                       INPUT FILE
================================================================================
NAME = mol.inp
|  1> # ================================================================
|  2> # Orca input file
|  3> # ================================================================
|  4> ! HF cc-pVQZ VeryTightSCF UseSym
|  5> 
|  6> ! PAL4
|  7> 
|  8> %scf
|  9>   STABPerform true
| 10> #  STABRestartUHFifUnstable true
| 11> end
| 12> 
| 13> 
| 14> 
| 15> * xyzfile 0 2 ../../../../chem_database/B.xyz
| 16> 
| 17>                          ****END OF INPUT****
================================================================================

------------------------------------------------------------------------------
                            SYMMETRY HANDLING SETUP
------------------------------------------------------------------------------

------------------
SYMMETRY DETECTION
------------------
Preparing Data                    ... done
Detection Threshold:    SymThresh ... 1.0000e-04

Point Group will now be determined:
Moving molecule to center of mass ... done

POINT GROUP                       ... Kh

The coordinates will now be cleaned:
Structure cleanup requested       ... yes
Selected point group              ... Kh
Cleaning Tolerance      SymThresh ... 1.0000e-04

Cleaning coordinates              ... done

-----------------------------------------------
SYMMETRY-PERFECTED CARTESIAN COORDINATES (A.U.)
-----------------------------------------------
Warning (ORCA_SYM): Coordinates were not cleaned so far!

------------------
SYMMETRY REDUCTION
------------------
ORCA supports only abelian point groups.
It is now checked, if the determined point group is supported:
Point Group ( Kh    ) is          ... NOT supported
Reducing to abelian subgroup      ... D2h

(Re)building abelian point group:
Creating Character Table          ... done
Making direct product table       ... done
Constructing symmetry operations  ... done
Creating atom transfer table      ... done
Creating asymmetric unit          ... done

----------------------
ASYMMETRIC UNIT IN D2h
----------------------
  #  AT     MASS              COORDS (A.U.)             BAS
   0 B   10.8100   0.00000000   0.00000000   0.00000000   0

----------------------
SYMMETRY ADAPTED BASIS
----------------------
The coefficients for the symmetry adapted linear combinations (SALCS)
of basis functions will now be computed:
Number of basis functions         ...    55
Preparing memory                  ... done
Constructing Gamma(red)           ... done
Reducing Gamma(red)               ... done
Constructing SALCs                ... done
Checking SALC integrity           ... nothing suspicious
Normalizing SALCs                 ... done

Storing the symmetry object:
Symmetry file                     ... mol.sym.tmp
Writing symmetry information      ... done

                       ****************************
                       * Single Point Calculation *
                       ****************************

---------------------------------
CARTESIAN COORDINATES (ANGSTROEM)
---------------------------------
  B      0.000000    0.000000    0.000000

----------------------------
CARTESIAN COORDINATES (A.U.)
----------------------------
  NO LB      ZA    FRAG     MASS         X           Y           Z
   0 B     5.0000    0    10.810    0.000000    0.000000    0.000000

--------------------------------
INTERNAL COORDINATES (ANGSTROEM)
--------------------------------
 B      0   0   0     0.000000000000     0.00000000     0.00000000

---------------------------
INTERNAL COORDINATES (A.U.)
---------------------------
 B      0   0   0     0.000000000000     0.00000000     0.00000000

---------------------
BASIS SET INFORMATION
---------------------
There are 1 groups of distinct atoms

 Group   1 Type B   : 21s6p3d2f1g contracted to 5s4p3d2f1g pattern {99111/3111/111/11/1}

Atom   0B    basis set group =>   1


           ************************************************************
           *        Program running with 4 parallel MPI-processes     *
           *              working on a common directory               *
           ************************************************************
------------------------------------------------------------------------------
                           ORCA GTO INTEGRAL CALCULATION
------------------------------------------------------------------------------

                         BASIS SET STATISTICS AND STARTUP INFO

 # of primitive gaussian shells          ...   33
 # of primitive gaussian functions       ...   77
 # of contracted shells                  ...   15
 # of contracted basis functions         ...   55
 Highest angular momentum                ...    4
 Maximum contraction depth               ...    9
 Integral package used                   ... LIBINT
 Integral threshhold            Thresh   ...  1.000e-12
 Primitive cut-off              TCut     ...  1.000e-14


------------------------------ INTEGRAL EVALUATION ----------------------------


 * One electron integrals 
 Pre-screening matrix                    ... done
 Shell pair data                         ... done (   0.000 sec)



           ************************************************************
           *        Program running with 4 parallel MPI-processes     *
           *              working on a common directory               *
           ************************************************************
-------------------------------------------------------------------------------
                                 ORCA SCF
-------------------------------------------------------------------------------

------------
SCF SETTINGS
------------
Hamiltonian:
 Ab initio Hamiltonian  Method          .... Hartree-Fock(GTOs)


General Settings:
 Integral files         IntName         .... mol
 Hartree-Fock type      HFTyp           .... UHF
 Total Charge           Charge          ....    0
 Multiplicity           Mult            ....    2
 Number of Electrons    NEL             ....    5
 Basis Dimension        Dim             ....   55
 Nuclear Repulsion      ENuc            ....      0.0000000000 Eh

 Symmetry handling      UseSym         .... ON
 Point group                           .... D2h
 Used point group                      .... D2h
 Number of irreps                      .... 8
   Irrep   Ag has   14 symmetry adapted basis functions (ofs=   0)
   Irrep  B1g has    5 symmetry adapted basis functions (ofs=  14)
   Irrep  B2g has    5 symmetry adapted basis functions (ofs=  19)
   Irrep  B3g has    5 symmetry adapted basis functions (ofs=  24)
   Irrep   Au has    2 symmetry adapted basis functions (ofs=  29)
   Irrep  B1u has    8 symmetry adapted basis functions (ofs=  31)
   Irrep  B2u has    8 symmetry adapted basis functions (ofs=  39)
   Irrep  B3u has    8 symmetry adapted basis functions (ofs=  47)

Convergence Acceleration:
 DIIS                   CNVDIIS         .... on
   Start iteration      DIISMaxIt       ....    12
   Startup error        DIISStart       ....  0.200000
   # of expansion vecs  DIISMaxEq       ....     5
   Bias factor          DIISBfac        ....   1.050
   Max. coefficient     DIISMaxC        ....  10.000
 Newton-Raphson         CNVNR           .... off
 SOSCF                  CNVSOSCF        .... off
 Level Shifting         CNVShift        .... on
   Level shift para.    LevelShift      ....    0.2500
   Turn off err/grad.   ShiftErr        ....    0.0010
 Zerner damping         CNVZerner       .... off
 Static damping         CNVDamp         .... on
   Fraction old density DampFac         ....    0.7000
   Max. Damping (<1)    DampMax         ....    0.9800
   Min. Damping (>=0)   DampMin         ....    0.0000
   Turn off err/grad.   DampErr         ....    0.1000
 Fernandez-Rico         CNVRico         .... off

SCF Procedure:
 Maximum # iterations   MaxIter         ....   125
 SCF integral mode      SCFMode         .... Direct
   Integral package                     .... LIBINT
 Reset frequeny         DirectResetFreq ....    20
 Integral Threshold     Thresh          ....  1.000e-12 Eh
 Primitive CutOff       TCut            ....  1.000e-14 Eh

Convergence Tolerance:
 Convergence Check Mode ConvCheckMode   .... Total+1el-Energy
 Convergence forced     ConvForced      .... 0
 Energy Change          TolE            ....  1.000e-09 Eh
 1-El. energy change                    ....  1.000e-06 Eh
 DIIS Error             TolErr          ....  1.000e-08


Diagonalization of the overlap matrix:
Smallest eigenvalue                        ... 5.254e-03
Time for diagonalization                   ...    0.006 sec
Threshold for overlap eigenvalues          ... 1.000e-08
Number of eigenvalues below threshold      ... 0
Time for construction of square roots      ...    0.001 sec
Producing symmetrization matrix            ... done (   0.000 sec)
Total time needed                          ...    0.008 sec

-------------------
DFT GRID GENERATION
-------------------

General Integration Accuracy     IntAcc      ...  4.340
Radial Grid Type                 RadialGrid  ... Gauss-Chebyshev
Angular Grid (max. acc.)         AngularGrid ... Lebedev-110
Angular grid pruning method      GridPruning ... 3 (G Style)
Weight generation scheme         WeightScheme... Becke
Basis function cutoff            BFCut       ...    1.0000e-12
Integration weight cutoff        WCut        ...    1.0000e-14
Grids for H and He will be reduced by one unit

# of grid points (after initial pruning)     ...   1678 (   0.0 sec)
# of grid points (after weights+screening)   ...   1678 (   0.0 sec)
Grid point division into batches done        ...    0.0 sec
Reduced shell lists constructed in    0.0 sec

Total number of grid points                  ...     1678
Total number of batches                      ...       27
Average number of points per batch           ...       62
Average number of grid points per atom       ...     1678
Average number of shells per batch           ...     9.88 (65.83%)
Average number of basis functions per batch  ...    38.88 (70.68%)
Average number of large shells per batch     ...     8.38 (84.81%)
Average number of large basis fcns per batch ...    31.88 (81.99%)
Maximum spatial batch extension              ...  20.06, 37.06, 37.06 au
Average spatial batch extension              ...   4.62,  6.28,  7.66 au

Time for grid setup =    0.022 sec

------------------------------
INITIAL GUESS: MODEL POTENTIAL
------------------------------
Loading Hartree-Fock densities                     ... done
Calculating cut-offs                               ... done
Setting up the integral package                    ... done
Initializing the effective Hamiltonian             ... done
Starting the Coulomb interaction                   ... done (   0.0 sec)
Reading the grid                                   ... done
Mapping shells                                     ... done
Starting the XC term evaluation                    ... done (   0.0 sec)
done (   0.0 sec)
Diagonalizing the Hamiltonian                      ... done (   0.0 sec)
Back transforming the eigenvectors                 ... done (   0.0 sec)
Now organizing SCF variables                       ... done
The symmetry of the initial guess is 2-B1u
Irrep occupations for operator 0
    Ag -    2
   B1g -    0
   B2g -    0
   B3g -    0
    Au -    0
   B1u -    1
   B2u -    0
   B3u -    0
Irrep occupations for operator 1
    Ag -    2
   B1g -    0
   B2g -    0
   B3g -    0
    Au -    0
   B1u -    0
   B2u -    0
   B3u -    0
                      ------------------
                      INITIAL GUESS DONE (   0.1 sec)
                      ------------------
--------------
SCF ITERATIONS
--------------
ITER       Energy         Delta-E        Max-DP      RMS-DP      [F,P]     Damp
               ***  Starting incremental Fock matrix formation  ***
  0    -24.5241485535   0.000000000000 0.02232486  0.00050552  0.1022094 0.7000
  1    -24.5261938106  -0.002045257143 0.01604916  0.00038242  0.0740855 0.7000
                               ***Turning on DIIS***
  2    -24.5278292575  -0.001635446887 0.03790019  0.00094813  0.0531929 0.0000
  3    -24.5316480977  -0.003818840210 0.00641013  0.00020332  0.0051905 0.0000
  4    -24.5323870155  -0.000738917767 0.00455408  0.00014888  0.0034677 0.0000
  5    -24.5318000526   0.000586962925 0.00330952  0.00010546  0.0021009 0.0000
  6    -24.5320928255  -0.000292772978 0.00214280  0.00005695  0.0010472 0.0000
  7    -24.5325423029  -0.000449477340 0.00168518  0.00003899  0.0004454 0.0000
  8    -24.5329125453  -0.000370242384 0.00021368  0.00000457  0.0000486 0.0000
  9    -24.5329603873  -0.000047842076 0.00002308  0.00000063  0.0000078 0.0000
 10    -24.5329669834  -0.000006596082 0.00000189  0.00000005  0.0000012 0.0000
 11    -24.5329671554  -0.000000171978 0.00000070  0.00000001  0.0000002 0.0000
                            ***DIIS convergence achieved***

               *****************************************************
               *                     SUCCESS                       *
               *           SCF CONVERGED AFTER  12 CYCLES          *
               *****************************************************


------------------------------------------------------------------------------
                          SCF STABILITY ANALYSIS                              
------------------------------------------------------------------------------


                       ****Iteration    0****

   Memory handling for direct AO based CIS:
   Memory per vector needed      ...     1 MB
   Memory needed                 ...     0 MB
   Memory available              ...  1024 MB
   Number of vectors per batch   ...  1024
   Number of batches             ...     1
   Time for densities:     0.000
   Using LibInt in JK Direct
   Time for J+K (Direct):     0.219
   Time for Sigma-Completion:     0.001
   Lowest Energy          :     0.052061054739
   Maximum Energy change  :     0.221896984703 (vector 2)
   Maximum residual norm  :     0.044243232230

                       ****Iteration    1****
   Time for densities:     0.000
   Using LibInt in JK Direct
   Time for J+K (Direct):     0.170
   Time for Sigma-Completion:     0.001
   Lowest Energy          :     0.000655912836
   Maximum Energy change  :     0.176499889331 (vector 2)
   Maximum residual norm  :     0.012124686828

                       ****Iteration    2****
   Time for densities:     0.000
   Using LibInt in JK Direct
   Time for J+K (Direct):     0.168
   Time for Sigma-Completion:     0.000
   Lowest Energy          :     0.000091092439
   Maximum Energy change  :     0.014520491093 (vector 2)
   Maximum residual norm  :     0.000806525397

                       ****Iteration    3****
   Time for densities:     0.000
   Using LibInt in JK Direct
   Time for J+K (Direct):     0.168
   Time for Sigma-Completion:     0.000
   Lowest Energy          :     0.000083229558
   Maximum Energy change  :     0.000580041236 (vector 2)
   Maximum residual norm  :     0.000014618108

      *** CONVERGENCE OF RESIDUAL NORM REACHED ***

----------------------------- 
SCF STABILITY ANALYSIS RESULT 
----------------------------- 

UHF/UKS->UHF/UKS - singlet - internal

   Root    Eigenvalue (au) 
     0       0.000083 
     1       0.000083 
     2       0.030297 

Stability Analysis indicates a stable HF/KS wave function.


Total time for performing the stability analysis:     0.730sec


----------------
TOTAL SCF ENERGY
----------------

Total Energy       :          -24.53296714 Eh            -667.57597 eV

Components:
Nuclear Repulsion  :            0.00000000 Eh               0.00000 eV
Electronic Energy  :          -24.53296714 Eh            -667.57597 eV
One Electron Energy:          -32.36875032 Eh            -880.79848 eV
Two Electron Energy:            7.83578317 Eh             213.22250 eV

Virial components:
Potential Energy   :          -49.06604128 Eh           -1335.15486 eV
Kinetic Energy     :           24.53307414 Eh             667.57889 eV
Virial Ratio       :            1.99999564


---------------
SCF CONVERGENCE
---------------

  Last Energy change         ...    1.2313e-08  Tolerance :   1.0000e-09
  Last MAX-Density change    ...    1.0874e-07  Tolerance :   1.0000e-08
  Last RMS-Density change    ...    3.2523e-09  Tolerance :   1.0000e-09
  Last DIIS Error            ...    1.7291e-08  Tolerance :   1.0000e-08

             **** THE GBW FILE WAS UPDATED (mol.gbw) ****
             **** DENSITY FILE WAS UPDATED (mol.scfp.tmp) ****
             **** ENERGY FILE WAS UPDATED (mol.en.tmp) ****
----------------------
UHF SPIN CONTAMINATION
----------------------

Expectation value of <S**2>     :     0.761149
Ideal value S*(S+1) for S=0.5   :     0.750000
Deviation                       :     0.011149

----------------
ORBITAL ENERGIES
----------------
                 SPIN UP ORBITALS
  NO   OCC          E(Eh)            E(eV)    Irrep 
   0   1.0000      -7.701185      -209.5599    1-Ag
   1   1.0000      -0.545145       -14.8341    2-Ag
   2   1.0000      -0.318669        -8.6714    1-B1u
   3   0.0000       0.041830         1.1382    1-B2u
   4   0.0000       0.041830         1.1382    1-B3u
   5   0.0000       0.214696         5.8422    2-B1u
   6   0.0000       0.217081         5.9071    3-Ag
   7   0.0000       0.262725         7.1491    2-B3u
   8   0.0000       0.262725         7.1491    2-B2u
   9   0.0000       0.398733        10.8501    4-Ag
  10   0.0000       0.400120        10.8878    1-B3g
  11   0.0000       0.400120        10.8878    1-B2g
  12   0.0000       0.408176        11.1070    1-B1g
  13   0.0000       0.408176        11.1070    5-Ag
  14   0.0000       0.978410        26.6239    3-B1u
  15   0.0000       1.009384        27.4667    3-B3u
  16   0.0000       1.009384        27.4667    3-B2u
  17   0.0000       1.218755        33.1640    4-B2u
  18   0.0000       1.218755        33.1640    4-B3u
  19   0.0000       1.225942        33.3596    4-B1u
  20   0.0000       1.225942        33.3596    1-Au
  21   0.0000       1.230248        33.4767    5-B3u
  22   0.0000       1.230248        33.4767    5-B2u
  23   0.0000       1.231639        33.5146    5-B1u
  24   0.0000       1.274909        34.6921    6-Ag
  25   0.0000       1.324264        36.0350    7-Ag
  26   0.0000       1.325292        36.0630    2-B2g
  27   0.0000       1.325292        36.0630    2-B3g
  28   0.0000       1.334535        36.3146    2-B1g
  29   0.0000       1.334535        36.3146    8-Ag
  30   0.0000       3.393753        92.3487    3-B1g
  31   0.0000       3.393753        92.3487    9-Ag
  32   0.0000       3.407912        92.7340    3-B3g
  33   0.0000       3.407912        92.7340    3-B2g
  34   0.0000       3.418069        93.0104    4-B1g
  35   0.0000       3.418069        93.0104   10-Ag
  36   0.0000       3.424175        93.1766    4-B2g
  37   0.0000       3.424175        93.1766    4-B3g
  38   0.0000       3.426213        93.2320   11-Ag
  39   0.0000       3.699683       100.6735    6-B1u
  40   0.0000       3.701784       100.7307    6-B2u
  41   0.0000       3.701784       100.7307    6-B3u
  42   0.0000       3.898005       106.0701    5-B1g
  43   0.0000       3.898005       106.0701   12-Ag
  44   0.0000       3.905295       106.2685    5-B2g
  45   0.0000       3.905295       106.2685    5-B3g
  46   0.0000       3.907826       106.3374   13-Ag
  47   0.0000       3.941650       107.2577    7-B3u
  48   0.0000       3.941650       107.2577    7-B2u
  49   0.0000       3.955048       107.6223    2-Au
  50   0.0000       3.955048       107.6223    7-B1u
  51   0.0000       3.963216       107.8446    8-B2u
  52   0.0000       3.963216       107.8446    8-B3u
  53   0.0000       3.965959       107.9192    8-B1u
  54   0.0000      12.847556       349.5998   14-Ag

                 SPIN DOWN ORBITALS
  NO   OCC          E(Eh)            E(eV)    Irrep 
   0   1.0000      -7.686051      -209.1481    1-Ag
   1   1.0000      -0.446133       -12.1399    2-Ag
   2   0.0000       0.051204         1.3933    1-B2u
   3   0.0000       0.051204         1.3933    1-B3u
   4   0.0000       0.088890         2.4188    1-B1u
   5   0.0000       0.233346         6.3497    3-Ag
   6   0.0000       0.271972         7.4007    2-B3u
   7   0.0000       0.271972         7.4007    2-B2u
   8   0.0000       0.309269         8.4156    2-B1u
   9   0.0000       0.409162        11.1339    1-B1g
  10   0.0000       0.409162        11.1339    4-Ag
  11   0.0000       0.430839        11.7237    1-B2g
  12   0.0000       0.430839        11.7237    1-B3g
  13   0.0000       0.439080        11.9480    5-Ag
  14   0.0000       1.018956        27.7272    3-B3u
  15   0.0000       1.018956        27.7272    3-B2u
  16   0.0000       1.062945        28.9242    3-B1u
  17   0.0000       1.219178        33.1755    4-B2u
  18   0.0000       1.219178        33.1755    4-B3u
  19   0.0000       1.243190        33.8289    4-B1u
  20   0.0000       1.243190        33.8289    1-Au
  21   0.0000       1.258520        34.2461    5-B3u
  22   0.0000       1.258520        34.2461    5-B2u
  23   0.0000       1.263920        34.3930    5-B1u
  24   0.0000       1.303533        35.4709    6-Ag
  25   0.0000       1.339217        36.4420    2-B1g
  26   0.0000       1.339217        36.4420    7-Ag
  27   0.0000       1.377255        37.4770    2-B2g
  28   0.0000       1.377255        37.4770    2-B3g
  29   0.0000       1.391272        37.8584    8-Ag
  30   0.0000       3.394264        92.3626    3-B1g
  31   0.0000       3.394264        92.3626    9-Ag
  32   0.0000       3.420113        93.0660    3-B3g
  33   0.0000       3.420113        93.0660    3-B2g
  34   0.0000       3.438942        93.5784    4-B1g
  35   0.0000       3.438942        93.5784   10-Ag
  36   0.0000       3.450396        93.8901    4-B2g
  37   0.0000       3.450396        93.8901    4-B3g
  38   0.0000       3.454242        93.9947   11-Ag
  39   0.0000       3.708901       100.9243    6-B2u
  40   0.0000       3.708901       100.9243    6-B3u
  41   0.0000       3.750542       102.0574    6-B1u
  42   0.0000       3.903514       106.2200    5-B1g
  43   0.0000       3.903514       106.2200   12-Ag
  44   0.0000       3.942711       107.2866    5-B2g
  45   0.0000       3.942711       107.2866    5-B3g
  46   0.0000       3.944387       107.3322    7-B3u
  47   0.0000       3.944387       107.3322    7-B2u
  48   0.0000       3.956410       107.6594   13-Ag
  49   0.0000       3.977538       108.2343    7-B1u
  50   0.0000       3.977538       108.2343    2-Au
  51   0.0000       3.998381       108.8015    8-B3u
  52   0.0000       3.998381       108.8015    8-B2u
  53   0.0000       4.005633       108.9988    8-B1u
  54   0.0000      12.859675       349.9295   14-Ag

                    ********************************
                    * MULLIKEN POPULATION ANALYSIS *
                    ********************************

--------------------------------------------
MULLIKEN ATOMIC CHARGES AND SPIN POPULATIONS
--------------------------------------------
   0 B :    0.000000    1.000000
Sum of atomic charges         :    0.0000000
Sum of atomic spin populations:    1.0000000

-----------------------------------------------------
MULLIKEN REDUCED ORBITAL CHARGES AND SPIN POPULATIONS
-----------------------------------------------------
CHARGE
  0 B s       :     3.994996  s :     3.994996
      pz      :     0.999989  p :     0.999989
      px      :     0.000000
      py      :     0.000000
      dz2     :     0.005004  d :     0.005004
      dxz     :     0.000000
      dyz     :     0.000000
      dx2y2   :     0.000000
      dxy     :     0.000000
      f0      :     0.000011  f :     0.000011
      f+1     :     0.000000
      f-1     :     0.000000
      f+2     :     0.000000
      f-2     :     0.000000
      f+3     :     0.000000
      f-3     :     0.000000
      g0      :     0.000000  g :     0.000000
      g+1     :     0.000000
      g-1     :     0.000000
      g+2     :     0.000000
      g-2     :     0.000000
      g+3     :     0.000000
      g-3     :     0.000000
      g+4     :     0.000000
      g-4     :     0.000000

SPIN
  0 B s       :    -0.001020  s :    -0.001020
      pz      :     0.999989  p :     0.999989
      px      :     0.000000
      py      :     0.000000
      dz2     :     0.001021  d :     0.001021
      dxz     :     0.000000
      dyz     :     0.000000
      dx2y2   :    -0.000000
      dxy     :    -0.000000
      f0      :     0.000011  f :     0.000011
      f+1     :     0.000000
      f-1     :     0.000000
      f+2     :     0.000000
      f-2     :     0.000000
      f+3     :     0.000000
      f-3     :    -0.000000
      g0      :    -0.000000  g :    -0.000000
      g+1     :     0.000000
      g-1     :    -0.000000
      g+2     :    -0.000000
      g-2     :     0.000000
      g+3     :     0.000000
      g-3     :    -0.000000
      g+4     :     0.000000
      g-4     :     0.000000


                     *******************************
                     * LOEWDIN POPULATION ANALYSIS *
                     *******************************

-------------------------------------------
LOEWDIN ATOMIC CHARGES AND SPIN POPULATIONS
-------------------------------------------
   0 B :    0.000000    1.000000

----------------------------------------------------
LOEWDIN REDUCED ORBITAL CHARGES AND SPIN POPULATIONS
----------------------------------------------------
CHARGE
  0 B s       :     3.994996  s :     3.994996
      pz      :     0.999989  p :     0.999989
      px      :     0.000000
      py      :     0.000000
      dz2     :     0.005004  d :     0.005004
      dxz     :     0.000000
      dyz     :     0.000000
      dx2y2   :     0.000000
      dxy     :     0.000000
      f0      :     0.000011  f :     0.000011
      f+1     :     0.000000
      f-1     :     0.000000
      f+2     :     0.000000
      f-2     :     0.000000
      f+3     :     0.000000
      f-3     :     0.000000
      g0      :     0.000000  g :     0.000000
      g+1     :     0.000000
      g-1     :     0.000000
      g+2     :     0.000000
      g-2     :     0.000000
      g+3     :     0.000000
      g-3     :     0.000000
      g+4     :     0.000000
      g-4     :     0.000000

SPIN
  0 B s       :    -0.001020  s :    -0.001020
      pz      :     0.999989  p :     0.999989
      px      :     0.000000
      py      :     0.000000
      dz2     :     0.001021  d :     0.001021
      dxz     :     0.000000
      dyz     :     0.000000
      dx2y2   :    -0.000000
      dxy     :    -0.000000
      f0      :     0.000011  f :     0.000011
      f+1     :     0.000000
      f-1     :     0.000000
      f+2     :     0.000000
      f-2     :     0.000000
      f+3     :     0.000000
      f-3     :    -0.000000
      g0      :    -0.000000  g :    -0.000000
      g+1     :     0.000000
      g-1     :    -0.000000
      g+2     :    -0.000000
      g-2     :    -0.000000
      g+3     :    -0.000000
      g-3     :    -0.000000
      g+4     :     0.000000
      g-4     :     0.000000


                      *****************************
                      * MAYER POPULATION ANALYSIS *
                      *****************************

  NA   - Mulliken gross atomic population
  ZA   - Total nuclear charge
  QA   - Mulliken gross atomic charge
  VA   - Mayer's total valence
  BVA  - Mayer's bonded valence
  FA   - Mayer's free valence

  ATOM       NA         ZA         QA         VA         BVA        FA
  0 B      5.0000     5.0000     0.0000     1.0223     0.0000     1.0223

  Mayer bond orders larger than 0.1


-------
TIMINGS
-------

Total SCF time: 0 days 0 hours 0 min 3 sec 

Total time                  ....       3.155 sec
Sum of individual times     ....       3.139 sec  ( 99.5%)

Fock matrix formation       ....       2.247 sec  ( 71.2%)
Diagonalization             ....       0.010 sec  (  0.3%)
Density matrix formation    ....       0.001 sec  (  0.0%)
Population analysis         ....       0.001 sec  (  0.0%)
Initial guess               ....       0.122 sec  (  3.9%)
Orbital Transformation      ....       0.000 sec  (  0.0%)
Orbital Orthonormalization  ....       0.000 sec  (  0.0%)
DIIS solution               ....       0.004 sec  (  0.1%)
SCF Stability Analysis      ....       0.730 sec  ( 23.2%)

-------------------------   --------------------
FINAL SINGLE POINT ENERGY       -24.532967143095
-------------------------   --------------------


                            ***************************************
                            *     ORCA property calculations      *
                            ***************************************

                                    ---------------------
                                    Active property flags
                                    ---------------------
   (+) Dipole Moment


------------------------------------------------------------------------------
                       ORCA ELECTRIC PROPERTIES CALCULATION
------------------------------------------------------------------------------

Dipole Moment Calculation                       ... on
Quadrupole Moment Calculation                   ... off
Polarizability Calculation                      ... off
GBWName                                         ... mol.gbw
Electron density file                           ... mol.scfp.tmp
The origin for moment calculation is the CENTER OF MASS  = ( 0.000000,  0.000000  0.000000)

-------------
DIPOLE MOMENT
-------------
                                X             Y             Z
Electronic contribution:      0.00000      -0.00000       0.00000
Nuclear contribution   :      0.00000       0.00000       0.00000
                        -----------------------------------------
Total Dipole Moment    :      0.00000      -0.00000       0.00000
                        -----------------------------------------
Magnitude (a.u.)       :      0.00000
Magnitude (Debye)      :      0.00000


Timings for individual modules:

Sum of individual times         ...        3.852 sec (=   0.064 min)
GTO integral calculation        ...        0.467 sec (=   0.008 min)  12.1 %
SCF iterations                  ...        3.385 sec (=   0.056 min)  87.9 %
                             ****ORCA TERMINATED NORMALLY****
TOTAL RUN TIME: 0 days 0 hours 0 minutes 4 seconds 197 msec
