
                                 *****************
                                 * O   R   C   A *
                                 *****************

           --- An Ab Initio, DFT and Semiempirical electronic structure package ---

                  #######################################################
                  #                        -***-                        #
                  #  Department of molecular theory and spectroscopy    #
                  #              Directorship: Frank Neese              #
                  # Max Planck Institute for Chemical Energy Conversion #
                  #                  D-45470 Muelheim/Ruhr              #
                  #                       Germany                       #
                  #                                                     #
                  #                  All rights reserved                #
                  #                        -***-                        #
                  #######################################################


                         Program Version 4.0.1.2 - RELEASE -


 With contributions from (in alphabetic order):
   Daniel Aravena         : Magnetic Properties
   Michael Atanasov       : Ab Initio Ligand Field Theory
   Ute Becker             : Parallelization
   Martin Brehm           : Molecular dynamics
   Dmytro Bykov           : SCF Hessian
   Vijay G. Chilkuri      : MRCI spin determinant printing
   Dipayan Datta          : RHF DLPNO-CCSD density
   Achintya Kumar Dutta   : EOM-CC, STEOM-CC
   Dmitry Ganyushin       : Spin-Orbit,Spin-Spin,Magnetic field MRCI
   Yang Guo               : DLPNO-NEVPT2, CIM, IAO-localization
   Andreas Hansen         : Spin unrestricted coupled pair/coupled cluster methods
   Lee Huntington         : MR-EOM, pCC
   Robert Izsak           : Overlap fitted RIJCOSX, COSX-SCS-MP3, EOM
   Christian Kollmar      : KDIIS, OOCD, Brueckner-CCSD(T), CCSD density
   Simone Kossmann        : Meta GGA functionals, TD-DFT gradient, OOMP2, MP2 Hessian
   Martin Krupicka        : AUTO-CI
   Dagmar Lenk            : GEPOL surface
   Dimitrios Liakos       : Extrapolation schemes; parallel MDCI
   Dimitrios Manganas     : ROCIS; embedding schemes
   Dimitrios Pantazis     : SARC Basis sets
   Taras Petrenko         : DFT Hessian,TD-DFT gradient, ASA, ECA, R-Raman, ABS, FL, XAS/XES, NRVS
   Peter Pinski           : DLPNO-MP2
   Christoph Reimann      : Effective Core Potentials
   Marius Retegan         : Local ZFS, SOC
   Christoph Riplinger    : Optimizer, TS searches, QM/MM, DLPNO-CCSD(T), (RO)-DLPNO pert. Triples
   Tobias Risthaus        : Range-separated hybrids, TD-DFT gradient, RPA, STAB
   Michael Roemelt        : Restricted open shell CIS
   Masaaki Saitow         : Open-shell DLPNO
   Barbara Sandhoefer     : DKH picture change effects
   Kantharuban Sivalingam : CASSCF convergence, NEVPT2, FIC-MRCI
   Georgi Stoychev        : AutoAux
   Boris Wezisla          : Elementary symmetry handling
   Frank Wennmohs         : Technical directorship


 We gratefully acknowledge several colleagues who have allowed us to
 interface, adapt or use parts of their codes:
   Stefan Grimme, W. Hujo, H. Kruse,             : VdW corrections, initial TS optimization,
                  C. Bannwarth                     DFT functionals, gCP, sTDA/sTD-DF
   Ed Valeev                                     : LibInt (2-el integral package), F12 methods
   Garnet Chan, S. Sharma, J. Yang, R. Olivares  : DMRG
   Ulf Ekstrom                                   : XCFun DFT Library
   Mihaly Kallay                                 : mrcc  (arbitrary order and MRCC methods)
   Andreas Klamt, Michael Diedenhofen            : otool_cosmo (COSMO solvation model)
   Jiri Pittner, Ondrej Demel                    : Mk-CCSD
   Frank Weinhold                                : gennbo (NPA and NBO analysis)
   Christopher J. Cramer and Donald G. Truhlar   : smd solvation model


 Your calculation uses the libint2 library for the computation of 2-el integrals
 For citations please refer to: http://libint.valeyev.net

 This ORCA versions uses:
   CBLAS   interface :  Fast vector & matrix operations
   LAPACKE interface :  Fast linear algebra routines
   SCALAPACK package :  Parallel linear algebra routines




*****************************************
The coordinations will be read from file: ../../../../chem_database/Cl.xyz
*****************************************


Your calculation utilizes the basis: def2-QZVP
   F. Weigend and R. Ahlrichs, Phys. Chem. Chem. Phys. 7, 3297 (2005).

================================================================================
                                        WARNINGS
                       Please study these warnings very carefully!
================================================================================

Warning: TCutStore was < 0. Adjusted to Thresh (uncritical)

WARNING: your system is open-shell and RHF/RKS was chosen
  ===> : WILL SWITCH to UHF/UKS


INFO   : the flag for use of LIBINT has been found!

================================================================================
                                       INPUT FILE
================================================================================
NAME = mol.inp
|  1> # ================================================================
|  2> # Orca input file
|  3> # ================================================================
|  4> ! HF def2-QZVP VeryTightSCF UseSym
|  5> 
|  6> ! PAL4
|  7> 
|  8> %scf
|  9>   STABPerform true
| 10> #  STABRestartUHFifUnstable true
| 11> end
| 12> 
| 13> 
| 14> 
| 15> * xyzfile 0 2 ../../../../chem_database/Cl.xyz
| 16> 
| 17>                          ****END OF INPUT****
================================================================================

------------------------------------------------------------------------------
                            SYMMETRY HANDLING SETUP
------------------------------------------------------------------------------

------------------
SYMMETRY DETECTION
------------------
Preparing Data                    ... done
Detection Threshold:    SymThresh ... 1.0000e-04

Point Group will now be determined:
Moving molecule to center of mass ... done

POINT GROUP                       ... Kh

The coordinates will now be cleaned:
Structure cleanup requested       ... yes
Selected point group              ... Kh
Cleaning Tolerance      SymThresh ... 1.0000e-04

Cleaning coordinates              ... done

-----------------------------------------------
SYMMETRY-PERFECTED CARTESIAN COORDINATES (A.U.)
-----------------------------------------------
Warning (ORCA_SYM): Coordinates were not cleaned so far!

------------------
SYMMETRY REDUCTION
------------------
ORCA supports only abelian point groups.
It is now checked, if the determined point group is supported:
Point Group ( Kh    ) is          ... NOT supported
Reducing to abelian subgroup      ... D2h

(Re)building abelian point group:
Creating Character Table          ... done
Making direct product table       ... done
Constructing symmetry operations  ... done
Creating atom transfer table      ... done
Creating asymmetric unit          ... done

----------------------
ASYMMETRIC UNIT IN D2h
----------------------
  #  AT     MASS              COORDS (A.U.)             BAS
   0 Cl  35.4530   0.00000000   0.00000000   0.00000000   0

----------------------
SYMMETRY ADAPTED BASIS
----------------------
The coefficients for the symmetry adapted linear combinations (SALCS)
of basis functions will now be computed:
Number of basis functions         ...    70
Preparing memory                  ... done
Constructing Gamma(red)           ... done
Reducing Gamma(red)               ... done
Constructing SALCs                ... done
Checking SALC integrity           ... nothing suspicious
Normalizing SALCs                 ... done

Storing the symmetry object:
Symmetry file                     ... mol.sym.tmp
Writing symmetry information      ... done

                       ****************************
                       * Single Point Calculation *
                       ****************************

---------------------------------
CARTESIAN COORDINATES (ANGSTROEM)
---------------------------------
  Cl     0.000000    0.000000    0.000000

----------------------------
CARTESIAN COORDINATES (A.U.)
----------------------------
  NO LB      ZA    FRAG     MASS         X           Y           Z
   0 Cl   17.0000    0    35.453    0.000000    0.000000    0.000000

--------------------------------
INTERNAL COORDINATES (ANGSTROEM)
--------------------------------
 Cl     0   0   0     0.000000000000     0.00000000     0.00000000

---------------------------
INTERNAL COORDINATES (A.U.)
---------------------------
 Cl     0   0   0     0.000000000000     0.00000000     0.00000000

---------------------
BASIS SET INFORMATION
---------------------
There are 1 groups of distinct atoms

 Group   1 Type Cl  : 20s14p4d2f1g contracted to 9s6p4d2f1g pattern {1031111111/821111/1111/11/1}

Atom   0Cl   basis set group =>   1


           ************************************************************
           *        Program running with 4 parallel MPI-processes     *
           *              working on a common directory               *
           ************************************************************
------------------------------------------------------------------------------
                           ORCA GTO INTEGRAL CALCULATION
------------------------------------------------------------------------------

                         BASIS SET STATISTICS AND STARTUP INFO

 # of primitive gaussian shells          ...   41
 # of primitive gaussian functions       ...  105
 # of contracted shells                  ...   22
 # of contracted basis functions         ...   70
 Highest angular momentum                ...    4
 Maximum contraction depth               ...   10
 Integral package used                   ... LIBINT
 Integral threshhold            Thresh   ...  1.000e-12
 Primitive cut-off              TCut     ...  1.000e-14


------------------------------ INTEGRAL EVALUATION ----------------------------


 * One electron integrals 
 Pre-screening matrix                    ... done
 Shell pair data                         ... done (   0.000 sec)



           ************************************************************
           *        Program running with 4 parallel MPI-processes     *
           *              working on a common directory               *
           ************************************************************
-------------------------------------------------------------------------------
                                 ORCA SCF
-------------------------------------------------------------------------------

------------
SCF SETTINGS
------------
Hamiltonian:
 Ab initio Hamiltonian  Method          .... Hartree-Fock(GTOs)


General Settings:
 Integral files         IntName         .... mol
 Hartree-Fock type      HFTyp           .... UHF
 Total Charge           Charge          ....    0
 Multiplicity           Mult            ....    2
 Number of Electrons    NEL             ....   17
 Basis Dimension        Dim             ....   70
 Nuclear Repulsion      ENuc            ....      0.0000000000 Eh

 Symmetry handling      UseSym         .... ON
 Point group                           .... D2h
 Used point group                      .... D2h
 Number of irreps                      .... 8
   Irrep   Ag has   20 symmetry adapted basis functions (ofs=   0)
   Irrep  B1g has    6 symmetry adapted basis functions (ofs=  20)
   Irrep  B2g has    6 symmetry adapted basis functions (ofs=  26)
   Irrep  B3g has    6 symmetry adapted basis functions (ofs=  32)
   Irrep   Au has    2 symmetry adapted basis functions (ofs=  38)
   Irrep  B1u has   10 symmetry adapted basis functions (ofs=  40)
   Irrep  B2u has   10 symmetry adapted basis functions (ofs=  50)
   Irrep  B3u has   10 symmetry adapted basis functions (ofs=  60)

Convergence Acceleration:
 DIIS                   CNVDIIS         .... on
   Start iteration      DIISMaxIt       ....    12
   Startup error        DIISStart       ....  0.200000
   # of expansion vecs  DIISMaxEq       ....     5
   Bias factor          DIISBfac        ....   1.050
   Max. coefficient     DIISMaxC        ....  10.000
 Newton-Raphson         CNVNR           .... off
 SOSCF                  CNVSOSCF        .... off
 Level Shifting         CNVShift        .... on
   Level shift para.    LevelShift      ....    0.2500
   Turn off err/grad.   ShiftErr        ....    0.0010
 Zerner damping         CNVZerner       .... off
 Static damping         CNVDamp         .... on
   Fraction old density DampFac         ....    0.7000
   Max. Damping (<1)    DampMax         ....    0.9800
   Min. Damping (>=0)   DampMin         ....    0.0000
   Turn off err/grad.   DampErr         ....    0.1000
 Fernandez-Rico         CNVRico         .... off

SCF Procedure:
 Maximum # iterations   MaxIter         ....   125
 SCF integral mode      SCFMode         .... Direct
   Integral package                     .... LIBINT
 Reset frequeny         DirectResetFreq ....    20
 Integral Threshold     Thresh          ....  1.000e-12 Eh
 Primitive CutOff       TCut            ....  1.000e-14 Eh

Convergence Tolerance:
 Convergence Check Mode ConvCheckMode   .... Total+1el-Energy
 Convergence forced     ConvForced      .... 0
 Energy Change          TolE            ....  1.000e-09 Eh
 1-El. energy change                    ....  1.000e-06 Eh
 DIIS Error             TolErr          ....  1.000e-08


Diagonalization of the overlap matrix:
Smallest eigenvalue                        ... 1.859e-03
Time for diagonalization                   ...    0.008 sec
Threshold for overlap eigenvalues          ... 1.000e-08
Number of eigenvalues below threshold      ... 0
Time for construction of square roots      ...    0.001 sec
Producing symmetrization matrix            ... done (   0.000 sec)
Total time needed                          ...    0.009 sec

-------------------
DFT GRID GENERATION
-------------------

General Integration Accuracy     IntAcc      ...  4.340
Radial Grid Type                 RadialGrid  ... Gauss-Chebyshev
Angular Grid (max. acc.)         AngularGrid ... Lebedev-110
Angular grid pruning method      GridPruning ... 3 (G Style)
Weight generation scheme         WeightScheme... Becke
Basis function cutoff            BFCut       ...    1.0000e-12
Integration weight cutoff        WCut        ...    1.0000e-14
Grids for H and He will be reduced by one unit

# of grid points (after initial pruning)     ...   1844 (   0.0 sec)
# of grid points (after weights+screening)   ...   1844 (   0.0 sec)
Grid point division into batches done        ...    0.0 sec
Reduced shell lists constructed in    0.0 sec

Total number of grid points                  ...     1844
Total number of batches                      ...       29
Average number of points per batch           ...       63
Average number of grid points per atom       ...     1844
Average number of shells per batch           ...    12.00 (54.55%)
Average number of basis functions per batch  ...    48.00 (68.57%)
Average number of large shells per batch     ...     9.78 (81.48%)
Average number of large basis fcns per batch ...    39.11 (81.48%)
Maximum spatial batch extension              ...  16.21, 29.83, 29.83 au
Average spatial batch extension              ...   3.89,  5.18,  6.23 au

Time for grid setup =    0.019 sec

------------------------------
INITIAL GUESS: MODEL POTENTIAL
------------------------------
Loading Hartree-Fock densities                     ... done
Calculating cut-offs                               ... done
Setting up the integral package                    ... done
Initializing the effective Hamiltonian             ... done
Starting the Coulomb interaction                   ... done (   0.0 sec)
Reading the grid                                   ... done
Mapping shells                                     ... done
Starting the XC term evaluation                    ... done (   0.0 sec)
done (   0.0 sec)
Diagonalizing the Hamiltonian                      ... done (   0.0 sec)
Back transforming the eigenvectors                 ... done (   0.0 sec)
Now organizing SCF variables                       ... done
The symmetry of the initial guess is 2-B1u
Irrep occupations for operator 0
    Ag -    3
   B1g -    0
   B2g -    0
   B3g -    0
    Au -    0
   B1u -    2
   B2u -    2
   B3u -    2
Irrep occupations for operator 1
    Ag -    3
   B1g -    0
   B2g -    0
   B3g -    0
    Au -    0
   B1u -    1
   B2u -    2
   B3u -    2
                      ------------------
                      INITIAL GUESS DONE (   0.2 sec)
                      ------------------
--------------
SCF ITERATIONS
--------------
ITER       Energy         Delta-E        Max-DP      RMS-DP      [F,P]     Damp
               ***  Starting incremental Fock matrix formation  ***
  0   -459.4621326011   0.000000000000 0.00705750  0.00028083  0.6105236 0.7000
  1   -459.4693411836  -0.007208582482 0.00572123  0.00022173  0.4314028 0.7000
  2   -459.4747620486  -0.005420864989 0.00452189  0.00016904  0.3047524 0.7000
  3   -459.4787812113  -0.004019162712 0.00359417  0.00012921  0.2153597 0.7000
                               ***Turning on DIIS***
  4   -459.4817379182  -0.002956706909 0.00286334  0.00009944  0.1522372 0.7000
  5   -459.4836412122  -0.001903294022 0.00267730  0.00008695  0.1076489 0.7000
  6   -459.4842313067  -0.000590094494 0.00742447  0.00023655  0.0756917 0.0000
  7   -459.4894610764  -0.005229769727 0.00100016  0.00003088  0.0018415 0.0000
  8   -459.4886344661   0.000826610359 0.00069261  0.00002276  0.0010041 0.0000
  9   -459.4893238031  -0.000689337029 0.00033071  0.00000920  0.0003476 0.0000
 10   -459.4894867102  -0.000162907045 0.00005516  0.00000160  0.0000508 0.0000
 11   -459.4895520083  -0.000065298120 0.00000670  0.00000028  0.0000070 0.0000
 12   -459.4895454013   0.000006606952 0.00000290  0.00000010  0.0000014 0.0000
 13   -459.4895400946   0.000005306771 0.00000168  0.00000006  0.0000003 0.0000
 14   -459.4895409050  -0.000000810415 0.00000107  0.00000003  0.0000001 0.0000
 15   -459.4895409158  -0.000000010867 0.00000039  0.00000001  0.0000000 0.0000
                            ***DIIS convergence achieved***

               *****************************************************
               *                     SUCCESS                       *
               *           SCF CONVERGED AFTER  16 CYCLES          *
               *****************************************************


------------------------------------------------------------------------------
                          SCF STABILITY ANALYSIS                              
------------------------------------------------------------------------------


                       ****Iteration    0****

   Memory handling for direct AO based CIS:
   Memory per vector needed      ...     1 MB
   Memory needed                 ...     1 MB
   Memory available              ...  1024 MB
   Number of vectors per batch   ...  1024
   Number of batches             ...     1
   Time for densities:     0.001
   Using LibInt in JK Direct
   Time for J+K (Direct):     0.320
   Time for Sigma-Completion:     0.001
   Lowest Energy          :     0.043329160013
   Maximum Energy change  :     0.507438971264 (vector 2)
   Maximum residual norm  :     0.035459325694

                       ****Iteration    1****
   Time for densities:     0.000
   Using LibInt in JK Direct
   Time for J+K (Direct):     0.282
   Time for Sigma-Completion:     0.001
   Lowest Energy          :     0.001096869271
   Maximum Energy change  :     0.042232290742 (vector 1)
   Maximum residual norm  :     0.006928760380

                       ****Iteration    2****
   Time for densities:     0.000
   Using LibInt in JK Direct
   Time for J+K (Direct):     0.281
   Time for Sigma-Completion:     0.001
   Lowest Energy          :     0.000444908333
   Maximum Energy change  :     0.026152706299 (vector 2)
   Maximum residual norm  :     0.001601665297

                       ****Iteration    3****
   Time for densities:     0.000
   Using LibInt in JK Direct
   Time for J+K (Direct):     0.282
   Time for Sigma-Completion:     0.001
   Lowest Energy          :     0.000433951532
   Maximum Energy change  :     0.001771123034 (vector 2)
   Maximum residual norm  :     0.000978679417

                       ****Iteration    4****
   Time for densities:     0.000
   Using LibInt in JK Direct
   Time for J+K (Direct):     0.281
   Time for Sigma-Completion:     0.001
   Lowest Energy          :     0.000433843975
   Maximum Energy change  :     0.001311992680 (vector 2)
   Maximum residual norm  :     0.000279041546

                       ****Iteration    5****
   Time for densities:     0.000
   Using LibInt in JK Direct
   Time for J+K (Direct):     0.198
   Time for Sigma-Completion:     0.000
   Lowest Energy          :     0.000433843975
   Maximum Energy change  :     0.000158787936 (vector 2)
   Maximum residual norm  :     0.000030546351

      *** CONVERGENCE OF RESIDUAL NORM REACHED ***

----------------------------- 
SCF STABILITY ANALYSIS RESULT 
----------------------------- 

UHF/UKS->UHF/UKS - singlet - internal

   Root    Eigenvalue (au) 
     0       0.000434 
     1       0.000434 
     2       0.450694 

Stability Analysis indicates a stable HF/KS wave function.


Total time for performing the stability analysis:     1.655sec


----------------
TOTAL SCF ENERGY
----------------

Total Energy       :         -459.48954098 Eh          -12503.34607 eV

Components:
Nuclear Repulsion  :            0.00000000 Eh               0.00000 eV
Electronic Energy  :         -459.48954098 Eh          -12503.34607 eV
One Electron Energy:         -634.87328102 Eh          -17275.78026 eV
Two Electron Energy:          175.38374004 Eh            4772.43419 eV

Virial components:
Potential Energy   :         -918.97950454 Eh          -25006.70363 eV
Kinetic Energy     :          459.48996356 Eh           12503.35757 eV
Virial Ratio       :            1.99999908


---------------
SCF CONVERGENCE
---------------

  Last Energy change         ...   -6.6773e-08  Tolerance :   1.0000e-09
  Last MAX-Density change    ...    9.6237e-08  Tolerance :   1.0000e-08
  Last RMS-Density change    ...    2.7926e-09  Tolerance :   1.0000e-09
  Last DIIS Error            ...    1.2507e-08  Tolerance :   1.0000e-08

             **** THE GBW FILE WAS UPDATED (mol.gbw) ****
             **** DENSITY FILE WAS UPDATED (mol.scfp.tmp) ****
             **** ENERGY FILE WAS UPDATED (mol.en.tmp) ****
----------------------
UHF SPIN CONTAMINATION
----------------------

Expectation value of <S**2>     :     0.760541
Ideal value S*(S+1) for S=0.5   :     0.750000
Deviation                       :     0.010541

----------------
ORBITAL ENERGIES
----------------
                 SPIN UP ORBITALS
  NO   OCC          E(Eh)            E(eV)    Irrep 
   0   1.0000    -104.889286     -2854.1826    1-Ag
   1   1.0000     -10.612050      -288.7686    2-Ag
   2   1.0000      -8.097794      -220.3522    1-B1u
   3   1.0000      -8.073505      -219.6912    1-B2u
   4   1.0000      -8.073505      -219.6912    1-B3u
   5   1.0000      -1.135935       -30.9104    3-Ag
   6   1.0000      -0.581646       -15.8274    2-B1u
   7   1.0000      -0.502356       -13.6698    2-B2u
   8   1.0000      -0.502356       -13.6698    2-B3u
   9   0.0000       0.260467         7.0877    3-B1u
  10   0.0000       0.280336         7.6283    3-B3u
  11   0.0000       0.280336         7.6283    3-B2u
  12   0.0000       0.362360         9.8603    4-Ag
  13   0.0000       0.437350        11.9009    5-Ag
  14   0.0000       0.447286        12.1713    1-B2g
  15   0.0000       0.447286        12.1713    1-B3g
  16   0.0000       0.483098        13.1458    6-Ag
  17   0.0000       0.483098        13.1458    1-B1g
  18   0.0000       1.224135        33.3104    4-B1u
  19   0.0000       1.269242        34.5378    4-B3u
  20   0.0000       1.269242        34.5378    4-B2u
  21   0.0000       1.345945        36.6250    7-Ag
  22   0.0000       1.357839        36.9487    2-B2g
  23   0.0000       1.357839        36.9487    2-B3g
  24   0.0000       1.398371        38.0516    8-Ag
  25   0.0000       1.398371        38.0516    2-B1g
  26   0.0000       1.495246        40.6877    5-B1u
  27   0.0000       1.500642        40.8345    5-B3u
  28   0.0000       1.500642        40.8345    5-B2u
  29   0.0000       1.517068        41.2815    1-Au
  30   0.0000       1.517068        41.2815    6-B1u
  31   0.0000       1.546001        42.0688    6-B3u
  32   0.0000       1.546001        42.0688    6-B2u
  33   0.0000       2.104106        57.2556    9-Ag
  34   0.0000       3.510175        95.5167   10-Ag
  35   0.0000       3.521273        95.8187    3-B3g
  36   0.0000       3.521273        95.8187    3-B2g
  37   0.0000       3.557873        96.8147    3-B1g
  38   0.0000       3.557873        96.8147   11-Ag
  39   0.0000       3.858675       104.9999   12-Ag
  40   0.0000       3.862680       105.1089    4-B2g
  41   0.0000       3.862680       105.1089    4-B3g
  42   0.0000       3.874810       105.4389   13-Ag
  43   0.0000       3.874810       105.4389    4-B1g
  44   0.0000       3.895427       105.9999    5-B3g
  45   0.0000       3.895427       105.9999    5-B2g
  46   0.0000       3.925369       106.8147    5-B1g
  47   0.0000       3.925369       106.8147   14-Ag
  48   0.0000       4.196192       114.1842    7-B1u
  49   0.0000       4.212805       114.6362    8-B1u
  50   0.0000       4.219750       114.8252    7-B2u
  51   0.0000       4.219750       114.8252    7-B3u
  52   0.0000       4.241353       115.4131    2-Au
  53   0.0000       4.241353       115.4131    9-B1u
  54   0.0000       4.247209       115.5724    8-B3u
  55   0.0000       4.247209       115.5724    8-B2u
  56   0.0000       4.278297       116.4184    9-B2u
  57   0.0000       4.278297       116.4184    9-B3u
  58   0.0000       8.435059       229.5296   15-Ag
  59   0.0000      11.193843       304.6000   16-Ag
  60   0.0000      11.202332       304.8309    6-B2g
  61   0.0000      11.202332       304.8309    6-B3g
  62   0.0000      11.228612       305.5461   17-Ag
  63   0.0000      11.228612       305.5461    6-B1g
  64   0.0000      29.200878       794.5963   18-Ag
  65   0.0000      43.211401      1175.8420   10-B1u
  66   0.0000      43.231047      1176.3766   10-B3u
  67   0.0000      43.231047      1176.3766   10-B2u
  68   0.0000      99.658293      2711.8400   19-Ag
  69   0.0000     529.544711     14409.6441   20-Ag

                 SPIN DOWN ORBITALS
  NO   OCC          E(Eh)            E(eV)    Irrep 
   0   1.0000    -104.877641     -2853.8657    1-Ag
   1   1.0000     -10.600870      -288.4643    2-Ag
   2   1.0000      -8.067463      -219.5268    1-B2u
   3   1.0000      -8.067463      -219.5268    1-B3u
   4   1.0000      -8.048161      -219.0016    1-B1u
   5   1.0000      -1.014290       -27.6002    3-Ag
   6   1.0000      -0.480740       -13.0816    2-B2u
   7   1.0000      -0.480740       -13.0816    2-B3u
   8   0.0000      -0.038271        -1.0414    2-B1u
   9   0.0000       0.283305         7.7091    3-B3u
  10   0.0000       0.283305         7.7091    3-B2u
  11   0.0000       0.309470         8.4211    3-B1u
  12   0.0000       0.378963        10.3121    4-Ag
  13   0.0000       0.484741        13.1905    5-Ag
  14   0.0000       0.484741        13.1905    1-B1g
  15   0.0000       0.510105        13.8807    1-B2g
  16   0.0000       0.510105        13.8807    1-B3g
  17   0.0000       0.520191        14.1551    6-Ag
  18   0.0000       1.276977        34.7483    4-B3u
  19   0.0000       1.276977        34.7483    4-B2u
  20   0.0000       1.296631        35.2831    4-B1u
  21   0.0000       1.402378        38.1606    7-Ag
  22   0.0000       1.402378        38.1606    2-B1g
  23   0.0000       1.408560        38.3289    2-B2g
  24   0.0000       1.408560        38.3289    2-B3g
  25   0.0000       1.411073        38.3973    8-Ag
  26   0.0000       1.536065        41.7985    5-B1u
  27   0.0000       1.537142        41.8278    5-B3u
  28   0.0000       1.537142        41.8278    5-B2u
  29   0.0000       1.540415        41.9168    1-Au
  30   0.0000       1.540415        41.9168    6-B1u
  31   0.0000       1.545685        42.0602    6-B3u
  32   0.0000       1.545685        42.0602    6-B2u
  33   0.0000       2.129380        57.9434    9-Ag
  34   0.0000       3.536390        96.2301   10-Ag
  35   0.0000       3.542356        96.3924    3-B3g
  36   0.0000       3.542356        96.3924    3-B2g
  37   0.0000       3.560230        96.8788    3-B1g
  38   0.0000       3.560230        96.8788   11-Ag
  39   0.0000       3.895404       105.9993   12-Ag
  40   0.0000       3.897228       106.0490    4-B2g
  41   0.0000       3.897228       106.0490    4-B3g
  42   0.0000       3.902713       106.1982   13-Ag
  43   0.0000       3.902713       106.1982    4-B1g
  44   0.0000       3.911884       106.4478    5-B3g
  45   0.0000       3.911884       106.4478    5-B2g
  46   0.0000       3.924785       106.7988    5-B1g
  47   0.0000       3.924785       106.7988   14-Ag
  48   0.0000       4.254449       115.7695    7-B3u
  49   0.0000       4.254449       115.7695    7-B2u
  50   0.0000       4.256208       115.8173    7-B1u
  51   0.0000       4.259329       115.9022    8-B1u
  52   0.0000       4.261576       115.9634    8-B2u
  53   0.0000       4.261576       115.9634    8-B3u
  54   0.0000       4.268387       116.1487    2-Au
  55   0.0000       4.268387       116.1487    9-B1u
  56   0.0000       4.279647       116.4551    9-B2u
  57   0.0000       4.279647       116.4551    9-B3u
  58   0.0000       8.451125       229.9668   15-Ag
  59   0.0000      11.211898       305.0913   16-Ag
  60   0.0000      11.216514       305.2169    6-B2g
  61   0.0000      11.216514       305.2169    6-B3g
  62   0.0000      11.230641       305.6013   17-Ag
  63   0.0000      11.230641       305.6013    6-B1g
  64   0.0000      29.209750       794.8377   18-Ag
  65   0.0000      43.235185      1176.4892   10-B3u
  66   0.0000      43.235185      1176.4892   10-B2u
  67   0.0000      43.243942      1176.7275   10-B1u
  68   0.0000      99.664709      2712.0146   19-Ag
  69   0.0000     529.547216     14409.7123   20-Ag

                    ********************************
                    * MULLIKEN POPULATION ANALYSIS *
                    ********************************

--------------------------------------------
MULLIKEN ATOMIC CHARGES AND SPIN POPULATIONS
--------------------------------------------
   0 Cl:   -0.000000    1.000000
Sum of atomic charges         :   -0.0000000
Sum of atomic spin populations:    1.0000000

-----------------------------------------------------
MULLIKEN REDUCED ORBITAL CHARGES AND SPIN POPULATIONS
-----------------------------------------------------
CHARGE
  0 Cls       :     5.995384  s :     5.995384
      pz      :     2.999519  p :    10.998789
      px      :     3.999635
      py      :     3.999635
      dz2     :     0.004616  d :     0.004616
      dxz     :     0.000000
      dyz     :     0.000000
      dx2y2   :     0.000000
      dxy     :     0.000000
      f0      :     0.000481  f :     0.001211
      f+1     :     0.000365
      f-1     :     0.000365
      f+2     :     0.000000
      f-2     :     0.000000
      f+3     :     0.000000
      f-3     :     0.000000
      g0      :     0.000000  g :     0.000000
      g+1     :     0.000000
      g-1     :     0.000000
      g+2     :     0.000000
      g-2     :     0.000000
      g+3     :     0.000000
      g-3     :     0.000000
      g+4     :     0.000000
      g-4     :     0.000000

SPIN
  0 Cls       :     0.000972  s :     0.000972
      pz      :     0.999519  p :     0.998866
      px      :    -0.000327
      py      :    -0.000327
      dz2     :    -0.000972  d :    -0.000972
      dxz     :     0.000000
      dyz     :     0.000000
      dx2y2   :     0.000000
      dxy     :     0.000000
      f0      :     0.000481  f :     0.001134
      f+1     :     0.000327
      f-1     :     0.000327
      f+2     :     0.000000
      f-2     :     0.000000
      f+3     :     0.000000
      f-3     :     0.000000
      g0      :     0.000000  g :     0.000000
      g+1     :     0.000000
      g-1     :    -0.000000
      g+2     :    -0.000000
      g-2     :     0.000000
      g+3     :     0.000000
      g-3     :     0.000000
      g+4     :     0.000000
      g-4     :     0.000000


                     *******************************
                     * LOEWDIN POPULATION ANALYSIS *
                     *******************************

-------------------------------------------
LOEWDIN ATOMIC CHARGES AND SPIN POPULATIONS
-------------------------------------------
   0 Cl:    0.000000    1.000000

----------------------------------------------------
LOEWDIN REDUCED ORBITAL CHARGES AND SPIN POPULATIONS
----------------------------------------------------
CHARGE
  0 Cls       :     5.995384  s :     5.995384
      pz      :     2.999519  p :    10.998789
      px      :     3.999635
      py      :     3.999635
      dz2     :     0.004616  d :     0.004616
      dxz     :     0.000000
      dyz     :     0.000000
      dx2y2   :     0.000000
      dxy     :     0.000000
      f0      :     0.000481  f :     0.001211
      f+1     :     0.000365
      f-1     :     0.000365
      f+2     :     0.000000
      f-2     :     0.000000
      f+3     :     0.000000
      f-3     :     0.000000
      g0      :     0.000000  g :     0.000000
      g+1     :     0.000000
      g-1     :     0.000000
      g+2     :     0.000000
      g-2     :     0.000000
      g+3     :     0.000000
      g-3     :     0.000000
      g+4     :     0.000000
      g-4     :     0.000000

SPIN
  0 Cls       :     0.000972  s :     0.000972
      pz      :     0.999519  p :     0.998866
      px      :    -0.000327
      py      :    -0.000327
      dz2     :    -0.000972  d :    -0.000972
      dxz     :     0.000000
      dyz     :     0.000000
      dx2y2   :     0.000000
      dxy     :     0.000000
      f0      :     0.000481  f :     0.001134
      f+1     :     0.000327
      f-1     :     0.000327
      f+2     :     0.000000
      f-2     :     0.000000
      f+3     :     0.000000
      f-3     :     0.000000
      g0      :     0.000000  g :     0.000000
      g+1     :     0.000000
      g-1     :     0.000000
      g+2     :    -0.000000
      g-2     :     0.000000
      g+3     :     0.000000
      g-3     :     0.000000
      g+4     :     0.000000
      g-4     :     0.000000


                      *****************************
                      * MAYER POPULATION ANALYSIS *
                      *****************************

  NA   - Mulliken gross atomic population
  ZA   - Total nuclear charge
  QA   - Mulliken gross atomic charge
  VA   - Mayer's total valence
  BVA  - Mayer's bonded valence
  FA   - Mayer's free valence

  ATOM       NA         ZA         QA         VA         BVA        FA
  0 Cl    17.0000    17.0000    -0.0000     1.0211     0.0000     1.0211

  Mayer bond orders larger than 0.1


-------
TIMINGS
-------

Total SCF time: 0 days 0 hours 0 min 5 sec 

Total time                  ....       5.414 sec
Sum of individual times     ....       5.392 sec  ( 99.6%)

Fock matrix formation       ....       3.543 sec  ( 65.4%)
Diagonalization             ....       0.021 sec  (  0.4%)
Density matrix formation    ....       0.002 sec  (  0.0%)
Population analysis         ....       0.002 sec  (  0.0%)
Initial guess               ....       0.136 sec  (  2.5%)
Orbital Transformation      ....       0.000 sec  (  0.0%)
Orbital Orthonormalization  ....       0.000 sec  (  0.0%)
DIIS solution               ....       0.013 sec  (  0.2%)
SCF Stability Analysis      ....       1.655 sec  ( 30.6%)

-------------------------   --------------------
FINAL SINGLE POINT ENERGY      -459.489540982616
-------------------------   --------------------


                            ***************************************
                            *     ORCA property calculations      *
                            ***************************************

                                    ---------------------
                                    Active property flags
                                    ---------------------
   (+) Dipole Moment


------------------------------------------------------------------------------
                       ORCA ELECTRIC PROPERTIES CALCULATION
------------------------------------------------------------------------------

Dipole Moment Calculation                       ... on
Quadrupole Moment Calculation                   ... off
Polarizability Calculation                      ... off
GBWName                                         ... mol.gbw
Electron density file                           ... mol.scfp.tmp
The origin for moment calculation is the CENTER OF MASS  = ( 0.000000,  0.000000  0.000000)

-------------
DIPOLE MOMENT
-------------
                                X             Y             Z
Electronic contribution:     -0.00000       0.00000      -0.00000
Nuclear contribution   :      0.00000       0.00000       0.00000
                        -----------------------------------------
Total Dipole Moment    :     -0.00000       0.00000      -0.00000
                        -----------------------------------------
Magnitude (a.u.)       :      0.00000
Magnitude (Debye)      :      0.00000


Timings for individual modules:

Sum of individual times         ...        6.098 sec (=   0.102 min)
GTO integral calculation        ...        0.473 sec (=   0.008 min)   7.8 %
SCF iterations                  ...        5.626 sec (=   0.094 min)  92.2 %
                             ****ORCA TERMINATED NORMALLY****
TOTAL RUN TIME: 0 days 0 hours 0 minutes 6 seconds 435 msec
