
                                 *****************
                                 * O   R   C   A *
                                 *****************

           --- An Ab Initio, DFT and Semiempirical electronic structure package ---

                  #######################################################
                  #                        -***-                        #
                  #  Department of molecular theory and spectroscopy    #
                  #              Directorship: Frank Neese              #
                  # Max Planck Institute for Chemical Energy Conversion #
                  #                  D-45470 Muelheim/Ruhr              #
                  #                       Germany                       #
                  #                                                     #
                  #                  All rights reserved                #
                  #                        -***-                        #
                  #######################################################


                         Program Version 4.0.1.2 - RELEASE -


 With contributions from (in alphabetic order):
   Daniel Aravena         : Magnetic Properties
   Michael Atanasov       : Ab Initio Ligand Field Theory
   Ute Becker             : Parallelization
   Martin Brehm           : Molecular dynamics
   Dmytro Bykov           : SCF Hessian
   Vijay G. Chilkuri      : MRCI spin determinant printing
   Dipayan Datta          : RHF DLPNO-CCSD density
   Achintya Kumar Dutta   : EOM-CC, STEOM-CC
   Dmitry Ganyushin       : Spin-Orbit,Spin-Spin,Magnetic field MRCI
   Yang Guo               : DLPNO-NEVPT2, CIM, IAO-localization
   Andreas Hansen         : Spin unrestricted coupled pair/coupled cluster methods
   Lee Huntington         : MR-EOM, pCC
   Robert Izsak           : Overlap fitted RIJCOSX, COSX-SCS-MP3, EOM
   Christian Kollmar      : KDIIS, OOCD, Brueckner-CCSD(T), CCSD density
   Simone Kossmann        : Meta GGA functionals, TD-DFT gradient, OOMP2, MP2 Hessian
   Martin Krupicka        : AUTO-CI
   Dagmar Lenk            : GEPOL surface
   Dimitrios Liakos       : Extrapolation schemes; parallel MDCI
   Dimitrios Manganas     : ROCIS; embedding schemes
   Dimitrios Pantazis     : SARC Basis sets
   Taras Petrenko         : DFT Hessian,TD-DFT gradient, ASA, ECA, R-Raman, ABS, FL, XAS/XES, NRVS
   Peter Pinski           : DLPNO-MP2
   Christoph Reimann      : Effective Core Potentials
   Marius Retegan         : Local ZFS, SOC
   Christoph Riplinger    : Optimizer, TS searches, QM/MM, DLPNO-CCSD(T), (RO)-DLPNO pert. Triples
   Tobias Risthaus        : Range-separated hybrids, TD-DFT gradient, RPA, STAB
   Michael Roemelt        : Restricted open shell CIS
   Masaaki Saitow         : Open-shell DLPNO
   Barbara Sandhoefer     : DKH picture change effects
   Kantharuban Sivalingam : CASSCF convergence, NEVPT2, FIC-MRCI
   Georgi Stoychev        : AutoAux
   Boris Wezisla          : Elementary symmetry handling
   Frank Wennmohs         : Technical directorship


 We gratefully acknowledge several colleagues who have allowed us to
 interface, adapt or use parts of their codes:
   Stefan Grimme, W. Hujo, H. Kruse,             : VdW corrections, initial TS optimization,
                  C. Bannwarth                     DFT functionals, gCP, sTDA/sTD-DF
   Ed Valeev                                     : LibInt (2-el integral package), F12 methods
   Garnet Chan, S. Sharma, J. Yang, R. Olivares  : DMRG
   Ulf Ekstrom                                   : XCFun DFT Library
   Mihaly Kallay                                 : mrcc  (arbitrary order and MRCC methods)
   Andreas Klamt, Michael Diedenhofen            : otool_cosmo (COSMO solvation model)
   Jiri Pittner, Ondrej Demel                    : Mk-CCSD
   Frank Weinhold                                : gennbo (NPA and NBO analysis)
   Christopher J. Cramer and Donald G. Truhlar   : smd solvation model


 Your calculation uses the libint2 library for the computation of 2-el integrals
 For citations please refer to: http://libint.valeyev.net

 This ORCA versions uses:
   CBLAS   interface :  Fast vector & matrix operations
   LAPACKE interface :  Fast linear algebra routines
   SCALAPACK package :  Parallel linear algebra routines




*****************************************
The coordinations will be read from file: ../../../../chem_database/Se.xyz
*****************************************


Your calculation utilizes the basis: def2-QZVP
   F. Weigend and R. Ahlrichs, Phys. Chem. Chem. Phys. 7, 3297 (2005).

================================================================================
                                        WARNINGS
                       Please study these warnings very carefully!
================================================================================

Warning: TCutStore was < 0. Adjusted to Thresh (uncritical)

WARNING: your system is open-shell and RHF/RKS was chosen
  ===> : WILL SWITCH to UHF/UKS


INFO   : the flag for use of LIBINT has been found!

================================================================================
                                       INPUT FILE
================================================================================
NAME = mol.inp
|  1> # ================================================================
|  2> # Orca input file
|  3> # ================================================================
|  4> ! HF def2-QZVP VeryTightSCF UseSym
|  5> 
|  6> ! PAL4
|  7> 
|  8> #%scf
|  9> #  STABPerform true
| 10> #  STABRestartUHFifUnstable true
| 11> #end
| 12> 
| 13> 
| 14> 
| 15> * xyzfile 0 3 ../../../../chem_database/Se.xyz
| 16> 
| 17>                          ****END OF INPUT****
================================================================================

------------------------------------------------------------------------------
                            SYMMETRY HANDLING SETUP
------------------------------------------------------------------------------

------------------
SYMMETRY DETECTION
------------------
Preparing Data                    ... done
Detection Threshold:    SymThresh ... 1.0000e-04

Point Group will now be determined:
Moving molecule to center of mass ... done

POINT GROUP                       ... Kh

The coordinates will now be cleaned:
Structure cleanup requested       ... yes
Selected point group              ... Kh
Cleaning Tolerance      SymThresh ... 1.0000e-04

Cleaning coordinates              ... done

-----------------------------------------------
SYMMETRY-PERFECTED CARTESIAN COORDINATES (A.U.)
-----------------------------------------------
Warning (ORCA_SYM): Coordinates were not cleaned so far!

------------------
SYMMETRY REDUCTION
------------------
ORCA supports only abelian point groups.
It is now checked, if the determined point group is supported:
Point Group ( Kh    ) is          ... NOT supported
Reducing to abelian subgroup      ... D2h

(Re)building abelian point group:
Creating Character Table          ... done
Making direct product table       ... done
Constructing symmetry operations  ... done
Creating atom transfer table      ... done
Creating asymmetric unit          ... done

----------------------
ASYMMETRIC UNIT IN D2h
----------------------
  #  AT     MASS              COORDS (A.U.)             BAS
   0 Se  78.9600   0.00000000   0.00000000   0.00000000   0

----------------------
SYMMETRY ADAPTED BASIS
----------------------
The coefficients for the symmetry adapted linear combinations (SALCS)
of basis functions will now be computed:
Number of basis functions         ...    75
Preparing memory                  ... done
Constructing Gamma(red)           ... done
Reducing Gamma(red)               ... done
Constructing SALCs                ... done
Checking SALC integrity           ... nothing suspicious
Normalizing SALCs                 ... done

Storing the symmetry object:
Symmetry file                     ... mol.sym.tmp
Writing symmetry information      ... done

                       ****************************
                       * Single Point Calculation *
                       ****************************

---------------------------------
CARTESIAN COORDINATES (ANGSTROEM)
---------------------------------
  Se     0.000000    0.000000    0.000000

----------------------------
CARTESIAN COORDINATES (A.U.)
----------------------------
  NO LB      ZA    FRAG     MASS         X           Y           Z
   0 Se   34.0000    0    78.960    0.000000    0.000000    0.000000

--------------------------------
INTERNAL COORDINATES (ANGSTROEM)
--------------------------------
 Se     0   0   0     0.000000000000     0.00000000     0.00000000

---------------------------
INTERNAL COORDINATES (A.U.)
---------------------------
 Se     0   0   0     0.000000000000     0.00000000     0.00000000

---------------------
BASIS SET INFORMATION
---------------------
There are 1 groups of distinct atoms

 Group   1 Type Se  : 24s20p10d2f1g contracted to 11s7p4d2f1g pattern {114111111111/10511111/7111/11/1}

Atom   0Se   basis set group =>   1


           ************************************************************
           *        Program running with 4 parallel MPI-processes     *
           *              working on a common directory               *
           ************************************************************
------------------------------------------------------------------------------
                           ORCA GTO INTEGRAL CALCULATION
------------------------------------------------------------------------------

                         BASIS SET STATISTICS AND STARTUP INFO

 # of primitive gaussian shells          ...   57
 # of primitive gaussian functions       ...  157
 # of contracted shells                  ...   25
 # of contracted basis functions         ...   75
 Highest angular momentum                ...    4
 Maximum contraction depth               ...   11
 Integral package used                   ... LIBINT
 Integral threshhold            Thresh   ...  1.000e-12
 Primitive cut-off              TCut     ...  1.000e-14


------------------------------ INTEGRAL EVALUATION ----------------------------


 * One electron integrals 
 Pre-screening matrix                    ... done
 Shell pair data                         ... done (   0.000 sec)



           ************************************************************
           *        Program running with 4 parallel MPI-processes     *
           *              working on a common directory               *
           ************************************************************
-------------------------------------------------------------------------------
                                 ORCA SCF
-------------------------------------------------------------------------------

------------
SCF SETTINGS
------------
Hamiltonian:
 Ab initio Hamiltonian  Method          .... Hartree-Fock(GTOs)


General Settings:
 Integral files         IntName         .... mol
 Hartree-Fock type      HFTyp           .... UHF
 Total Charge           Charge          ....    0
 Multiplicity           Mult            ....    3
 Number of Electrons    NEL             ....   34
 Basis Dimension        Dim             ....   75
 Nuclear Repulsion      ENuc            ....      0.0000000000 Eh

 Symmetry handling      UseSym         .... ON
 Point group                           .... D2h
 Used point group                      .... D2h
 Number of irreps                      .... 8
   Irrep   Ag has   22 symmetry adapted basis functions (ofs=   0)
   Irrep  B1g has    6 symmetry adapted basis functions (ofs=  22)
   Irrep  B2g has    6 symmetry adapted basis functions (ofs=  28)
   Irrep  B3g has    6 symmetry adapted basis functions (ofs=  34)
   Irrep   Au has    2 symmetry adapted basis functions (ofs=  40)
   Irrep  B1u has   11 symmetry adapted basis functions (ofs=  42)
   Irrep  B2u has   11 symmetry adapted basis functions (ofs=  53)
   Irrep  B3u has   11 symmetry adapted basis functions (ofs=  64)

Convergence Acceleration:
 DIIS                   CNVDIIS         .... on
   Start iteration      DIISMaxIt       ....    12
   Startup error        DIISStart       ....  0.200000
   # of expansion vecs  DIISMaxEq       ....     5
   Bias factor          DIISBfac        ....   1.050
   Max. coefficient     DIISMaxC        ....  10.000
 Newton-Raphson         CNVNR           .... off
 SOSCF                  CNVSOSCF        .... off
 Level Shifting         CNVShift        .... on
   Level shift para.    LevelShift      ....    0.2500
   Turn off err/grad.   ShiftErr        ....    0.0010
 Zerner damping         CNVZerner       .... off
 Static damping         CNVDamp         .... on
   Fraction old density DampFac         ....    0.7000
   Max. Damping (<1)    DampMax         ....    0.9800
   Min. Damping (>=0)   DampMin         ....    0.0000
   Turn off err/grad.   DampErr         ....    0.1000
 Fernandez-Rico         CNVRico         .... off

SCF Procedure:
 Maximum # iterations   MaxIter         ....   125
 SCF integral mode      SCFMode         .... Direct
   Integral package                     .... LIBINT
 Reset frequeny         DirectResetFreq ....    20
 Integral Threshold     Thresh          ....  1.000e-12 Eh
 Primitive CutOff       TCut            ....  1.000e-14 Eh

Convergence Tolerance:
 Convergence Check Mode ConvCheckMode   .... Total+1el-Energy
 Convergence forced     ConvForced      .... 0
 Energy Change          TolE            ....  1.000e-09 Eh
 1-El. energy change                    ....  1.000e-06 Eh
 DIIS Error             TolErr          ....  1.000e-08


Diagonalization of the overlap matrix:
Smallest eigenvalue                        ... 8.158e-04
Time for diagonalization                   ...    0.009 sec
Threshold for overlap eigenvalues          ... 1.000e-08
Number of eigenvalues below threshold      ... 0
Time for construction of square roots      ...    0.001 sec
Producing symmetrization matrix            ... done (   0.001 sec)
Total time needed                          ...    0.011 sec

-------------------
DFT GRID GENERATION
-------------------

General Integration Accuracy     IntAcc      ...  4.340
Radial Grid Type                 RadialGrid  ... Gauss-Chebyshev
Angular Grid (max. acc.)         AngularGrid ... Lebedev-110
Angular grid pruning method      GridPruning ... 3 (G Style)
Weight generation scheme         WeightScheme... Becke
Basis function cutoff            BFCut       ...    1.0000e-12
Integration weight cutoff        WCut        ...    1.0000e-14
Grids for H and He will be reduced by one unit

# of grid points (after initial pruning)     ...   2950 (   0.0 sec)
# of grid points (after weights+screening)   ...   2950 (   0.0 sec)
Grid point division into batches done        ...    0.0 sec
Reduced shell lists constructed in    0.0 sec

Total number of grid points                  ...     2950
Total number of batches                      ...       47
Average number of points per batch           ...       62
Average number of grid points per atom       ...     2950
Average number of shells per batch           ...    12.62 (50.46%)
Average number of basis functions per batch  ...    49.23 (65.64%)
Average number of large shells per batch     ...    11.23 (89.02%)
Average number of large basis fcns per batch ...    45.38 (92.19%)
Maximum spatial batch extension              ...  22.78, 21.55, 21.55 au
Average spatial batch extension              ...   4.27,  3.52,  4.17 au

Time for grid setup =    0.047 sec

------------------------------
INITIAL GUESS: MODEL POTENTIAL
------------------------------
Loading Hartree-Fock densities                     ... done
Calculating cut-offs                               ... done
Setting up the integral package                    ... done
Initializing the effective Hamiltonian             ... done
Starting the Coulomb interaction                   ... done (   0.0 sec)
Reading the grid                                   ... done
Mapping shells                                     ... done
Starting the XC term evaluation                    ... done (   0.0 sec)
done (   0.0 sec)
Diagonalizing the Hamiltonian                      ... done (   0.0 sec)
Back transforming the eigenvectors                 ... done (   0.0 sec)
Now organizing SCF variables                       ... done
The symmetry of the initial guess is 3-B2g
Irrep occupations for operator 0
    Ag -    6
   B1g -    1
   B2g -    1
   B3g -    1
    Au -    0
   B1u -    3
   B2u -    3
   B3u -    3
Irrep occupations for operator 1
    Ag -    6
   B1g -    1
   B2g -    1
   B3g -    1
    Au -    0
   B1u -    2
   B2u -    3
   B3u -    2
                      ------------------
                      INITIAL GUESS DONE (   0.2 sec)
                      ------------------
--------------
SCF ITERATIONS
--------------
ITER       Energy         Delta-E        Max-DP      RMS-DP      [F,P]     Damp
               ***  Starting incremental Fock matrix formation  ***
  0  -2399.8270624218   0.000000000000 0.01004680  0.00043370  0.9302392 0.7000
  1  -2399.8410292668  -0.013966844906 0.00818124  0.00034541  0.6503534 0.7000
  2  -2399.8505412384  -0.009511971622 0.00687273  0.00026939  0.4549649 0.7000
  3  -2399.8572999267  -0.006758688286 0.00563984  0.00021174  0.3185102 0.7000
  4  -2399.8621704324  -0.004870505755 0.00464265  0.00016700  0.2231079 0.7000
                               ***Turning on DIIS***
  5  -2399.8656871691  -0.003516736732 0.00378975  0.00013199  0.1563500 0.7000
  6  -2399.8455077939   0.020179375208 0.00371066  0.00011919  0.1096056 0.7000
  7  -2399.8654370468  -0.019929252814 0.01033514  0.00033005  0.0768176 0.0000
  8  -2399.8746493042  -0.009212257477 0.00172444  0.00004532  0.0010619 0.0000
  9  -2399.8721228253   0.002526478897 0.00154910  0.00003911  0.0006141 0.0000
 10  -2399.8737016350  -0.001578809664 0.00050640  0.00001271  0.0001851 0.0000
 11  -2399.8752113631  -0.001509728083 0.00007161  0.00000220  0.0000709 0.0000
 12  -2399.8745113720   0.000699991111 0.00002380  0.00000082  0.0000158 0.0000
 13  -2399.8746030561  -0.000091684126 0.00000990  0.00000025  0.0000030 0.0000
 14  -2399.8746064179  -0.000003361762 0.00000309  0.00000008  0.0000004 0.0000
 15  -2399.8746089746  -0.000002556773 0.00000143  0.00000004  0.0000001 0.0000
 16  -2399.8746091589  -0.000000184268 0.00000056  0.00000002  0.0000000 0.0000
                            ***DIIS convergence achieved***

               *****************************************************
               *                     SUCCESS                       *
               *           SCF CONVERGED AFTER  17 CYCLES          *
               *****************************************************


----------------
TOTAL SCF ENERGY
----------------

Total Energy       :        -2399.87460930 Eh          -65303.90811 eV

Components:
Nuclear Repulsion  :            0.00000000 Eh               0.00000 eV
Electronic Energy  :        -2399.87460930 Eh          -65303.90811 eV
One Electron Energy:        -3343.44237278 Eh          -90979.69228 eV
Two Electron Energy:          943.56776348 Eh           25675.78418 eV

Virial components:
Potential Energy   :        -4799.74396083 Eh         -130607.67314 eV
Kinetic Energy     :         2399.86935153 Eh           65303.76503 eV
Virial Ratio       :            2.00000219


---------------
SCF CONVERGENCE
---------------

  Last Energy change         ...   -1.3839e-07  Tolerance :   1.0000e-09
  Last MAX-Density change    ...    1.2047e-07  Tolerance :   1.0000e-08
  Last RMS-Density change    ...    3.4178e-09  Tolerance :   1.0000e-09
  Last DIIS Error            ...    6.7287e-09  Tolerance :   1.0000e-08

             **** THE GBW FILE WAS UPDATED (mol.gbw) ****
             **** DENSITY FILE WAS UPDATED (mol.scfp.tmp) ****
             **** ENERGY FILE WAS UPDATED (mol.en.tmp) ****
----------------------
UHF SPIN CONTAMINATION
----------------------

Expectation value of <S**2>     :     2.011224
Ideal value S*(S+1) for S=1.0   :     2.000000
Deviation                       :     0.011224

----------------
ORBITAL ENERGIES
----------------
                 SPIN UP ORBITALS
  NO   OCC          E(Eh)            E(eV)    Irrep 
   0   1.0000    -460.870811    -12540.9323    1-Ag
   1   1.0000     -60.670332     -1650.9237    2-Ag
   2   1.0000     -54.274732     -1476.8905    1-B1u
   3   1.0000     -54.274732     -1476.8905    1-B3u
   4   1.0000     -54.268413     -1476.7186    1-B2u
   5   1.0000      -8.937842      -243.2111    3-Ag
   6   1.0000      -6.676526      -181.6775    2-B3u
   7   1.0000      -6.676526      -181.6775    2-B1u
   8   1.0000      -6.656540      -181.1337    2-B2u
   9   1.0000      -2.662731       -72.4566    4-Ag
  10   1.0000      -2.662731       -72.4566    1-B2g
  11   1.0000      -2.648626       -72.0728    1-B1g
  12   1.0000      -2.648626       -72.0728    1-B3g
  13   1.0000      -2.644016       -71.9473    5-Ag
  14   1.0000      -0.936218       -25.4758    6-Ag
  15   1.0000      -0.447815       -12.1857    3-B3u
  16   1.0000      -0.447815       -12.1857    3-B1u
  17   1.0000      -0.384139       -10.4530    3-B2u
  18   0.0000       0.237505         6.4628    4-B3u
  19   0.0000       0.237505         6.4628    4-B1u
  20   0.0000       0.256742         6.9863    7-Ag
  21   0.0000       0.258370         7.0306    4-B2u
  22   0.0000       0.369722        10.0607    2-B2g
  23   0.0000       0.369722        10.0607    8-Ag
  24   0.0000       0.401042        10.9129    2-B1g
  25   0.0000       0.401042        10.9129    2-B3g
  26   0.0000       0.413327        11.2472    9-Ag
  27   0.0000       0.970546        26.4099    5-B3u
  28   0.0000       0.970546        26.4099    5-B1u
  29   0.0000       0.994779        27.0693    1-Au
  30   0.0000       0.994779        27.0693    5-B2u
  31   0.0000       1.009750        27.4767    6-B3u
  32   0.0000       1.009750        27.4767    6-B1u
  33   0.0000       1.014987        27.6192    6-B2u
  34   0.0000       1.156085        31.4587    7-B3u
  35   0.0000       1.156085        31.4587    7-B1u
  36   0.0000       1.196551        32.5598    7-B2u
  37   0.0000       1.456532        39.6342   10-Ag
  38   0.0000       1.456532        39.6342    3-B2g
  39   0.0000       1.491261        40.5793    3-B1g
  40   0.0000       1.491261        40.5793    3-B3g
  41   0.0000       1.502345        40.8809   11-Ag
  42   0.0000       1.519633        41.3513   12-Ag
  43   0.0000       2.607658        70.9580    4-B2g
  44   0.0000       2.607658        70.9580   13-Ag
  45   0.0000       2.615374        71.1679    8-B1u
  46   0.0000       2.615374        71.1679    8-B3u
  47   0.0000       2.632042        71.6215    4-B1g
  48   0.0000       2.632042        71.6215    4-B3g
  49   0.0000       2.643961        71.9458    2-Au
  50   0.0000       2.643961        71.9458    8-B2u
  51   0.0000       2.650014        72.1106    5-B2g
  52   0.0000       2.650014        72.1106   14-Ag
  53   0.0000       2.661043        72.4107    5-B1g
  54   0.0000       2.661043        72.4107    5-B3g
  55   0.0000       2.661810        72.4315    9-B3u
  56   0.0000       2.661810        72.4315    9-B1u
  57   0.0000       2.664763        72.5119   15-Ag
  58   0.0000       2.667904        72.5974    9-B2u
  59   0.0000       4.023580       109.4872   10-B1u
  60   0.0000       4.023580       109.4872   10-B3u
  61   0.0000       4.065540       110.6290   10-B2u
  62   0.0000       4.795285       130.4863   16-Ag
  63   0.0000       4.795285       130.4863    6-B2g
  64   0.0000       4.821396       131.1968    6-B1g
  65   0.0000       4.821396       131.1968    6-B3g
  66   0.0000       4.830407       131.4421   17-Ag
  67   0.0000       6.765671       184.1033   18-Ag
  68   0.0000      13.559581       368.9750   11-B1u
  69   0.0000      13.559581       368.9750   11-B3u
  70   0.0000      13.586655       369.7117   11-B2u
  71   0.0000      25.268196       687.5826   19-Ag
  72   0.0000      82.542911      2246.1068   20-Ag
  73   0.0000     281.092343      7648.9115   21-Ag
  74   0.0000    1608.957081     43781.9480   22-Ag

                 SPIN DOWN ORBITALS
  NO   OCC          E(Eh)            E(eV)    Irrep 
   0   1.0000    -460.863748    -12540.7402    1-Ag
   1   1.0000     -60.666932     -1650.8311    2-Ag
   2   1.0000     -54.266352     -1476.6625    1-B2u
   3   1.0000     -54.264181     -1476.6034    1-B3u
   4   1.0000     -54.264181     -1476.6034    1-B1u
   5   1.0000      -8.924721      -242.8540    3-Ag
   6   1.0000      -6.653775      -181.0584    2-B2u
   7   1.0000      -6.650647      -180.9733    2-B1u
   8   1.0000      -6.650647      -180.9733    2-B3u
   9   1.0000      -2.649376       -72.0932    4-Ag
  10   1.0000      -2.649376       -72.0932    1-B2g
  11   1.0000      -2.641856       -71.8886    1-B1g
  12   1.0000      -2.641856       -71.8886    1-B3g
  13   1.0000      -2.639489       -71.8241    5-Ag
  14   1.0000      -0.741674       -20.1820    6-Ag
  15   1.0000      -0.348863        -9.4930    3-B2u
  16   0.0000      -0.000545        -0.0148    3-B1u
  17   0.0000      -0.000545        -0.0148    3-B3u
  18   0.0000       0.265028         7.2118    4-B2u
  19   0.0000       0.284663         7.7461    7-Ag
  20   0.0000       0.289626         7.8811    4-B1u
  21   0.0000       0.289626         7.8811    4-B3u
  22   0.0000       0.452437        12.3114    8-Ag
  23   0.0000       0.458088        12.4652    2-B1g
  24   0.0000       0.458088        12.4652    2-B3g
  25   0.0000       0.478342        13.0164    2-B2g
  26   0.0000       0.478342        13.0164    9-Ag
  27   0.0000       1.031926        28.0801    5-B1u
  28   0.0000       1.031926        28.0801    5-B3u
  29   0.0000       1.035958        28.1898    1-Au
  30   0.0000       1.035958        28.1898    5-B2u
  31   0.0000       1.037842        28.2411    6-B3u
  32   0.0000       1.037842        28.2411    6-B1u
  33   0.0000       1.038395        28.2562    6-B2u
  34   0.0000       1.209489        32.9119    7-B2u
  35   0.0000       1.218173        33.1482    7-B1u
  36   0.0000       1.218173        33.1482    7-B3u
  37   0.0000       1.536606        41.8132   10-Ag
  38   0.0000       1.537896        41.8483    3-B1g
  39   0.0000       1.537896        41.8483    3-B3g
  40   0.0000       1.541964        41.9590   11-Ag
  41   0.0000       1.541964        41.9590    3-B2g
  42   0.0000       1.554677        42.3049   12-Ag
  43   0.0000       2.664450        72.5034    4-B2g
  44   0.0000       2.664450        72.5034   13-Ag
  45   0.0000       2.674676        72.7816    4-B1g
  46   0.0000       2.674676        72.7816    4-B3g
  47   0.0000       2.675716        72.8099    8-B1u
  48   0.0000       2.675716        72.8099    8-B3u
  49   0.0000       2.681935        72.9792    5-B2g
  50   0.0000       2.681935        72.9792   14-Ag
  51   0.0000       2.685204        73.0681    2-Au
  52   0.0000       2.685204        73.0681    8-B2u
  53   0.0000       2.686265        73.0970    5-B3g
  54   0.0000       2.686265        73.0970    5-B1g
  55   0.0000       2.687704        73.1361   15-Ag
  56   0.0000       2.690838        73.2214    9-B1u
  57   0.0000       2.690838        73.2214    9-B3u
  58   0.0000       2.692702        73.2721    9-B2u
  59   0.0000       4.063857       110.5832   10-B1u
  60   0.0000       4.063857       110.5832   10-B3u
  61   0.0000       4.075174       110.8911   10-B2u
  62   0.0000       4.824217       131.2736    6-B2g
  63   0.0000       4.824217       131.2736   16-Ag
  64   0.0000       4.837460       131.6340    6-B3g
  65   0.0000       4.837460       131.6340    6-B1g
  66   0.0000       4.841862       131.7538   17-Ag
  67   0.0000       6.785311       184.6377   18-Ag
  68   0.0000      13.580239       369.5371   11-B3u
  69   0.0000      13.580239       369.5371   11-B1u
  70   0.0000      13.590576       369.8184   11-B2u
  71   0.0000      25.277037       687.8231   19-Ag
  72   0.0000      82.548058      2246.2468   20-Ag
  73   0.0000     281.096132      7649.0146   21-Ag
  74   0.0000    1608.958866     43781.9966   22-Ag

                    ********************************
                    * MULLIKEN POPULATION ANALYSIS *
                    ********************************

--------------------------------------------
MULLIKEN ATOMIC CHARGES AND SPIN POPULATIONS
--------------------------------------------
   0 Se:    0.000000    2.000000
Sum of atomic charges         :    0.0000000
Sum of atomic spin populations:    2.0000000

-----------------------------------------------------
MULLIKEN REDUCED ORBITAL CHARGES AND SPIN POPULATIONS
-----------------------------------------------------
CHARGE
  0 Ses       :     7.995438  s :     7.995438
      pz      :     4.999494  p :    15.998094
      px      :     4.999494
      py      :     5.999105
      dz2     :     2.001139  d :    10.004554
      dxz     :     1.999999
      dyz     :     1.999998
      dx2y2   :     2.003420
      dxy     :     1.999998
      f0      :     0.000190  f :     0.001906
      f+1     :     0.000032
      f-1     :     0.000336
      f+2     :     0.000316
      f-2     :     0.000000
      f+3     :     0.000474
      f-3     :     0.000559
      g0      :     0.000001  g :     0.000007
      g+1     :     0.000000
      g-1     :     0.000001
      g+2     :     0.000001
      g-2     :     0.000000
      g+3     :     0.000001
      g-3     :     0.000001
      g+4     :     0.000002
      g-4     :     0.000002

SPIN
  0 Ses       :     0.001642  s :     0.001642
      pz      :     0.999495  p :     1.998211
      px      :     0.999495
      py      :    -0.000779
      dz2     :    -0.000412  d :    -0.001649
      dxz     :    -0.000001
      dyz     :    -0.000002
      dx2y2   :    -0.001234
      dxy     :    -0.000002
      f0      :     0.000190  f :     0.001789
      f+1     :     0.000032
      f-1     :     0.000292
      f+2     :     0.000316
      f-2     :     0.000000
      f+3     :     0.000474
      f-3     :     0.000487
      g0      :     0.000001  g :     0.000007
      g+1     :     0.000000
      g-1     :     0.000001
      g+2     :     0.000001
      g-2     :     0.000000
      g+3     :     0.000001
      g-3     :     0.000001
      g+4     :     0.000002
      g-4     :     0.000001


                     *******************************
                     * LOEWDIN POPULATION ANALYSIS *
                     *******************************

-------------------------------------------
LOEWDIN ATOMIC CHARGES AND SPIN POPULATIONS
-------------------------------------------
   0 Se:    0.000000    2.000000

----------------------------------------------------
LOEWDIN REDUCED ORBITAL CHARGES AND SPIN POPULATIONS
----------------------------------------------------
CHARGE
  0 Ses       :     7.995438  s :     7.995438
      pz      :     4.999494  p :    15.998094
      px      :     4.999494
      py      :     5.999105
      dz2     :     2.001139  d :    10.004554
      dxz     :     1.999999
      dyz     :     1.999998
      dx2y2   :     2.003420
      dxy     :     1.999998
      f0      :     0.000190  f :     0.001906
      f+1     :     0.000032
      f-1     :     0.000336
      f+2     :     0.000316
      f-2     :     0.000000
      f+3     :     0.000474
      f-3     :     0.000559
      g0      :     0.000001  g :     0.000007
      g+1     :     0.000000
      g-1     :     0.000001
      g+2     :     0.000001
      g-2     :     0.000000
      g+3     :     0.000001
      g-3     :     0.000001
      g+4     :     0.000002
      g-4     :     0.000002

SPIN
  0 Ses       :     0.001642  s :     0.001642
      pz      :     0.999495  p :     1.998211
      px      :     0.999495
      py      :    -0.000779
      dz2     :    -0.000412  d :    -0.001649
      dxz     :    -0.000001
      dyz     :    -0.000002
      dx2y2   :    -0.001234
      dxy     :    -0.000002
      f0      :     0.000190  f :     0.001789
      f+1     :     0.000032
      f-1     :     0.000292
      f+2     :     0.000316
      f-2     :     0.000000
      f+3     :     0.000474
      f-3     :     0.000487
      g0      :     0.000001  g :     0.000007
      g+1     :     0.000000
      g-1     :     0.000001
      g+2     :     0.000001
      g-2     :     0.000000
      g+3     :     0.000001
      g-3     :     0.000001
      g+4     :     0.000002
      g-4     :     0.000001


                      *****************************
                      * MAYER POPULATION ANALYSIS *
                      *****************************

  NA   - Mulliken gross atomic population
  ZA   - Total nuclear charge
  QA   - Mulliken gross atomic charge
  VA   - Mayer's total valence
  BVA  - Mayer's bonded valence
  FA   - Mayer's free valence

  ATOM       NA         ZA         QA         VA         BVA        FA
  0 Se    34.0000    34.0000     0.0000     2.0224     0.0000     2.0224

  Mayer bond orders larger than 0.1


-------
TIMINGS
-------

Total SCF time: 0 days 0 hours 0 min 6 sec 

Total time                  ....       6.831 sec
Sum of individual times     ....       6.802 sec  ( 99.6%)

Fock matrix formation       ....       6.593 sec  ( 96.5%)
Diagonalization             ....       0.027 sec  (  0.4%)
Density matrix formation    ....       0.002 sec  (  0.0%)
Population analysis         ....       0.003 sec  (  0.0%)
Initial guess               ....       0.120 sec  (  1.8%)
Orbital Transformation      ....       0.000 sec  (  0.0%)
Orbital Orthonormalization  ....       0.000 sec  (  0.0%)
DIIS solution               ....       0.009 sec  (  0.1%)

-------------------------   --------------------
FINAL SINGLE POINT ENERGY     -2399.874609297291
-------------------------   --------------------


                            ***************************************
                            *     ORCA property calculations      *
                            ***************************************

                                    ---------------------
                                    Active property flags
                                    ---------------------
   (+) Dipole Moment


------------------------------------------------------------------------------
                       ORCA ELECTRIC PROPERTIES CALCULATION
------------------------------------------------------------------------------

Dipole Moment Calculation                       ... on
Quadrupole Moment Calculation                   ... off
Polarizability Calculation                      ... off
GBWName                                         ... mol.gbw
Electron density file                           ... mol.scfp.tmp
The origin for moment calculation is the CENTER OF MASS  = ( 0.000000,  0.000000  0.000000)

-------------
DIPOLE MOMENT
-------------
                                X             Y             Z
Electronic contribution:      0.00000      -0.00000       0.00000
Nuclear contribution   :      0.00000       0.00000       0.00000
                        -----------------------------------------
Total Dipole Moment    :      0.00000      -0.00000       0.00000
                        -----------------------------------------
Magnitude (a.u.)       :      0.00000
Magnitude (Debye)      :      0.00000


Timings for individual modules:

Sum of individual times         ...        7.576 sec (=   0.126 min)
GTO integral calculation        ...        0.525 sec (=   0.009 min)   6.9 %
SCF iterations                  ...        7.051 sec (=   0.118 min)  93.1 %
                             ****ORCA TERMINATED NORMALLY****
TOTAL RUN TIME: 0 days 0 hours 0 minutes 7 seconds 939 msec
