[Molden Format]
[Title]
 Molden file created by orca_2mkl for BaseName=mol

[Atoms] AU
Se   1  34          0.0000000000         0.0000000000         0.0000000000 
[GTO]
  1 0
s  11 1.0 
  9520446.7742999997         0.8652375565
  1424984.0802000000         1.6202791714
   324127.5768200000         2.8076710526
    91774.8769500000         4.6010304051
    29932.7257250000         7.2050568167
    10804.6179050000        10.8175119528
     4214.0134779000        15.4228045290
     1747.8116633000        20.3608157547
      762.1216087800        23.4499980720
      346.4560414100        21.0534939709
      163.1156930400        11.7556806492
s   4 1.0 
     2614.5153067000         1.8017691043
      818.6855275600         7.3584941273
      318.6339899100        16.7571470488
      139.0484412500        19.1299731545
s   1 1.0 
       78.3487347880        18.7686952635
s   1 1.0 
       31.7042906630         9.5224482888
s   1 1.0 
       15.5058592690         5.5690609464
s   1 1.0 
        7.3227423625         3.1726006446
s   1 1.0 
        3.4969483549         1.8225397370
s   1 1.0 
        1.6121546085         1.0196828360
s   1 1.0 
        0.4958715854         0.4211501982
s   1 1.0 
        0.2409213817         0.2450849262
s   1 1.0 
        0.1023173940         0.1289354068
p  10 1.0 
    25360.2156150000        27.6759634656
     5993.7896610000        40.6771245242
     1943.0741755000        57.3753291691
      742.3531615600        75.2869505171
      314.6211459700        89.5394548314
      143.3474804400        91.9898753157
       68.6736175520        75.0423893698
       34.0135541170        43.0956527695
       17.1980996210        13.7489429420
        8.5830329629         1.6634587603
p   5 1.0 
      236.5820914600        -2.4941883256
       90.5761832140        -5.6670284084
       39.0866893010        -6.0861482429
        9.3084344018         7.5509783717
        4.6169923084         6.9852344873
p   1 1.0 
        2.2653477506         3.9614911241
p   1 1.0 
        1.0800000000         1.5693498935
p   1 1.0 
        0.4793932858         0.5685975995
p   1 1.0 
        0.1961998384         0.1861287216
p   1 1.0 
        0.0762563393         0.0571195831
d   7 1.0 
      539.4870012400       133.6848556301
      162.1339443500       147.6222161870
       62.6617956410       140.0095891786
       27.0772728890       105.8540786631
       12.4830039290        61.4939340807
        5.8864623136        24.7797685081
        2.7519131105         6.7407781180
d   1 1.0 
        1.2500769617         4.2131740301
d   1 1.0 
        0.5117284184         0.8826515155
d   1 1.0 
        0.2000000000         0.1705189210
f   1 1.0 
        0.2840000000         0.3357115972
f   1 1.0 
        0.7097000000         2.6358360348
g   1 1.0 
        0.5730000000         1.4236218924

[5D]
[9G]
[MO]
 Sym=     1a
 Ene= -4.60870810781637E+02
 Spin= Alpha
 Occup= 1.000000
  1      -0.893758942349
  2      -0.000153209885
  3      -0.134946142351
  4      -0.010855329287
  5       0.001546275414
  6      -0.000702408244
  7       0.000400217632
  8      -0.000136406367
  9       0.000059499826
 10      -0.000038549450
 11       0.000009858504
 12       0.000000000000
 13      -0.000000000000
 14       0.000000000000
 15      -0.000000000000
 16       0.000000000000
 17       0.000000000000
 18       0.000000000000
 19      -0.000000000000
 20      -0.000000000000
 21      -0.000000000000
 22       0.000000000000
 23       0.000000000000
 24       0.000000000000
 25       0.000000000000
 26       0.000000000000
 27      -0.000000000000
 28       0.000000000000
 29      -0.000000000000
 30       0.000000000000
 31      -0.000000000000
 32       0.000000000000
 33      -0.000000249319
 34      -0.000000000000
 35      -0.000000000000
 36      -0.000000431833
 37       0.000000000000
 38       0.000000195659
 39      -0.000000000000
 40      -0.000000000000
 41       0.000000338890
 42       0.000000000000
 43      -0.000000144829
 44      -0.000000000000
 45       0.000000000000
 46      -0.000000250851
 47       0.000000000000
 48       0.000000045998
 49       0.000000000000
 50       0.000000000000
 51       0.000000079671
 52      -0.000000000000
 53      -0.000000000000
 54      -0.000000000000
 55       0.000000000000
 56      -0.000000000000
 57       0.000000000000
 58      -0.000000000000
 59       0.000000000000
 60       0.000000000000
 61       0.000000000000
 62      -0.000000000000
 63       0.000000000000
 64      -0.000000000000
 65       0.000000000000
 66      -0.000000000000
 67       0.000000000058
 68      -0.000000000000
 69       0.000000000000
 70       0.000000000086
 71      -0.000000000000
 72      -0.000000000000
 73       0.000000000000
 74      -0.000000000113
 75       0.000000000000
 Sym=     1a
 Ene= -6.06703322880055E+01
 Spin= Alpha
 Occup= 1.000000
  1      -0.282458954458
  2      -0.176109390235
  3      -0.024371141562
  4       0.455983525537
  5       0.550800400237
  6       0.143366764671
  7       0.002300346630
  8       0.002358431872
  9      -0.000625057910
 10       0.000333297037
 11      -0.000099827833
 12       0.000000000000
 13      -0.000000000000
 14       0.000000000000
 15      -0.000000000000
 16       0.000000000000
 17       0.000000000000
 18       0.000000000000
 19      -0.000000000000
 20      -0.000000000000
 21      -0.000000000000
 22      -0.000000000000
 23      -0.000000000000
 24       0.000000000000
 25       0.000000000000
 26       0.000000000000
 27      -0.000000000000
 28       0.000000000000
 29      -0.000000000000
 30       0.000000000000
 31      -0.000000000000
 32       0.000000000000
 33       0.000044394901
 34      -0.000000000000
 35      -0.000000000000
 36       0.000076894225
 37       0.000000000000
 38      -0.000026072048
 39       0.000000000000
 40      -0.000000000000
 41      -0.000045158111
 42      -0.000000000000
 43       0.000014774004
 44      -0.000000000000
 45       0.000000000000
 46       0.000025589326
 47      -0.000000000000
 48      -0.000005496268
 49       0.000000000000
 50       0.000000000000
 51      -0.000009519816
 52       0.000000000000
 53       0.000000000000
 54      -0.000000000000
 55      -0.000000000000
 56       0.000000000000
 57      -0.000000000000
 58      -0.000000000000
 59       0.000000000000
 60      -0.000000000000
 61       0.000000000000
 62      -0.000000000000
 63      -0.000000000000
 64       0.000000000000
 65       0.000000000000
 66      -0.000000000000
 67      -0.000000001181
 68       0.000000000000
 69       0.000000000000
 70      -0.000000001760
 71      -0.000000000000
 72       0.000000000000
 73       0.000000000000
 74       0.000000002328
 75       0.000000000000
 Sym=     1a
 Ene= -5.42747316305235E+01
 Spin= Alpha
 Occup= 1.000000
  1      -0.000000000000
  2      -0.000000000000
  3       0.000000000000
  4       0.000000000000
  5      -0.000000000000
  6      -0.000000000000
  7       0.000000000000
  8       0.000000000000
  9      -0.000000000000
 10      -0.000000000000
 11      -0.000000000000
 12      -0.000000000000
 13       0.000000000000
 14       0.997578827641
 15       0.000000000000
 16      -0.000000000000
 17       0.003467203656
 18      -0.000000000000
 19       0.000000000000
 20       0.004308027331
 21       0.000000000000
 22       0.000000000000
 23      -0.001852440131
 24      -0.000000000000
 25      -0.000000000000
 26       0.000964487146
 27      -0.000000000000
 28       0.000000000000
 29      -0.000397674208
 30      -0.000000000000
 31      -0.000000000000
 32       0.000114214479
 33       0.000000000000
 34       0.000000000000
 35       0.000000000000
 36      -0.000000000000
 37      -0.000000000000
 38      -0.000000000000
 39       0.000000000000
 40      -0.000000000000
 41       0.000000000000
 42       0.000000000000
 43       0.000000000000
 44      -0.000000000000
 45       0.000000000000
 46      -0.000000000000
 47       0.000000000000
 48      -0.000000000000
 49      -0.000000000000
 50      -0.000000000000
 51      -0.000000000000
 52       0.000000000000
 53      -0.000000416078
 54      -0.000000000000
 55       0.000000000000
 56      -0.000000537154
 57      -0.000000000000
 58      -0.000000000000
 59      -0.000000000000
 60       0.000000771065
 61       0.000000000000
 62       0.000000000000
 63       0.000000995441
 64       0.000000000000
 65       0.000000000000
 66       0.000000000000
 67       0.000000000000
 68       0.000000000000
 69       0.000000000000
 70       0.000000000000
 71       0.000000000000
 72      -0.000000000000
 73      -0.000000000000
 74      -0.000000000000
 75       0.000000000000
 Sym=     1a
 Ene= -5.42747316305234E+01
 Spin= Alpha
 Occup= 1.000000
  1      -0.000000000000
  2      -0.000000000000
  3      -0.000000000000
  4       0.000000000000
  5      -0.000000000000
  6      -0.000000000000
  7       0.000000000000
  8      -0.000000000000
  9       0.000000000000
 10      -0.000000000000
 11       0.000000000000
 12       0.997578827641
 13      -0.000000000000
 14      -0.000000000000
 15       0.003467203656
 16       0.000000000000
 17       0.000000000000
 18       0.004308027331
 19      -0.000000000000
 20       0.000000000000
 21      -0.001852440131
 22      -0.000000000000
 23       0.000000000000
 24       0.000964487146
 25       0.000000000000
 26       0.000000000000
 27      -0.000397674208
 28      -0.000000000000
 29      -0.000000000000
 30       0.000114214479
 31       0.000000000000
 32       0.000000000000
 33       0.000000000000
 34       0.000000000000
 35      -0.000000000000
 36      -0.000000000000
 37       0.000000000000
 38       0.000000000000
 39       0.000000000000
 40       0.000000000000
 41       0.000000000000
 42       0.000000000000
 43       0.000000000000
 44       0.000000000000
 45      -0.000000000000
 46      -0.000000000000
 47      -0.000000000000
 48      -0.000000000000
 49      -0.000000000000
 50       0.000000000000
 51       0.000000000000
 52      -0.000000000000
 53       0.000000000000
 54      -0.000000169863
 55      -0.000000000000
 56      -0.000000000000
 57       0.000000000000
 58       0.000000657877
 59      -0.000000000000
 60      -0.000000000000
 61       0.000000314786
 62      -0.000000000000
 63       0.000000000000
 64      -0.000000000000
 65      -0.000001219161
 66       0.000000000000
 67      -0.000000000000
 68       0.000000000000
 69      -0.000000000000
 70       0.000000000000
 71      -0.000000000000
 72      -0.000000000000
 73       0.000000000000
 74       0.000000000000
 75       0.000000000000
 Sym=     1a
 Ene= -5.42684132014643E+01
 Spin= Alpha
 Occup= 1.000000
  1      -0.000000000000
  2       0.000000000000
  3       0.000000000000
  4      -0.000000000000
  5      -0.000000000000
  6       0.000000000000
  7       0.000000000000
  8      -0.000000000000
  9      -0.000000000000
 10       0.000000000000
 11       0.000000000000
 12       0.000000000000
 13      -0.997607592766
 14      -0.000000000000
 15      -0.000000000000
 16      -0.003384492139
 17      -0.000000000000
 18       0.000000000000
 19      -0.004366209007
 20       0.000000000000
 21       0.000000000000
 22       0.001892233413
 23       0.000000000000
 24      -0.000000000000
 25      -0.000988242516
 26       0.000000000000
 27      -0.000000000000
 28       0.000406235170
 29       0.000000000000
 30       0.000000000000
 31      -0.000116887615
 32      -0.000000000000
 33       0.000000000000
 34      -0.000000000000
 35       0.000000000000
 36      -0.000000000000
 37      -0.000000000000
 38       0.000000000000
 39       0.000000000000
 40       0.000000000000
 41       0.000000000000
 42       0.000000000000
 43       0.000000000000
 44      -0.000000000000
 45      -0.000000000000
 46      -0.000000000000
 47       0.000000000000
 48       0.000000000000
 49      -0.000000000000
 50      -0.000000000000
 51      -0.000000000000
 52      -0.000000000000
 53      -0.000000000000
 54       0.000000000000
 55       0.000000499920
 56       0.000000000000
 57      -0.000000000000
 58       0.000000000000
 59      -0.000000645394
 60       0.000000000000
 61      -0.000000000000
 62      -0.000001015577
 63       0.000000000000
 64       0.000000000000
 65       0.000000000000
 66       0.000001311104
 67       0.000000000000
 68      -0.000000000000
 69       0.000000000000
 70      -0.000000000000
 71      -0.000000000000
 72      -0.000000000000
 73       0.000000000000
 74       0.000000000000
 75       0.000000000000
 Sym=     1a
 Ene= -8.93784219121079E+00
 Spin= Alpha
 Occup= 1.000000
  1      -0.110839682067
  2      -0.082047915401
  3      -0.012302941461
  4       0.283195107583
  5       0.502631644043
  6       0.006667949396
  7      -0.713111107424
  8      -0.500325229706
  9      -0.034149417535
 10       0.008310115704
 11      -0.002074404771
 12      -0.000000000000
 13       0.000000000000
 14      -0.000000000000
 15       0.000000000000
 16       0.000000000000
 17       0.000000000000
 18      -0.000000000000
 19       0.000000000000
 20       0.000000000000
 21       0.000000000000
 22      -0.000000000000
 23      -0.000000000000
 24      -0.000000000000
 25       0.000000000000
 26       0.000000000000
 27       0.000000000000
 28      -0.000000000000
 29      -0.000000000000
 30      -0.000000000000
 31      -0.000000000000
 32       0.000000000000
 33      -0.000869544206
 34      -0.000000000000
 35      -0.000000000000
 36      -0.001506094744
 37      -0.000000000000
 38      -0.000474150258
 39       0.000000000000
 40       0.000000000000
 41      -0.000821252338
 42       0.000000000000
 43       0.000019173830
 44       0.000000000000
 45      -0.000000000000
 46       0.000033210048
 47       0.000000000000
 48      -0.000025830377
 49      -0.000000000000
 50      -0.000000000000
 51      -0.000044739526
 52      -0.000000000000
 53       0.000000000000
 54      -0.000000000000
 55      -0.000000000000
 56       0.000000000000
 57      -0.000000000000
 58      -0.000000000000
 59       0.000000000000
 60      -0.000000000000
 61       0.000000000000
 62      -0.000000000000
 63      -0.000000000000
 64       0.000000000000
 65      -0.000000000000
 66      -0.000000000000
 67      -0.000000059635
 68      -0.000000000000
 69       0.000000000000
 70      -0.000000088898
 71       0.000000000000
 72      -0.000000000000
 73       0.000000000000
 74       0.000000117601
 75       0.000000000000
 Sym=     1a
 Ene= -6.67652559553895E+00
 Spin= Alpha
 Occup= 1.000000
  1       0.000000000000
  2      -0.000000000000
  3      -0.000000000000
  4      -0.000000000000
  5       0.000000000000
  6      -0.000000000000
  7       0.000000000000
  8      -0.000000000000
  9       0.000000000000
 10       0.000000000000
 11      -0.000000000000
 12      -0.399483557624
 13      -0.000000000000
 14       0.000000000000
 15       0.624812539197
 16       0.000000000000
 17       0.000000000000
 18       0.412933647216
 19      -0.000000000000
 20      -0.000000000000
 21       0.124201724843
 22       0.000000000000
 23       0.000000000000
 24       0.005838397046
 25      -0.000000000000
 26      -0.000000000000
 27       0.001104673731
 28       0.000000000000
 29       0.000000000000
 30      -0.000178036537
 31      -0.000000000000
 32      -0.000000000000
 33      -0.000000000000
 34      -0.000000000000
 35       0.000000000000
 36       0.000000000000
 37       0.000000000000
 38      -0.000000000000
 39       0.000000000000
 40      -0.000000000000
 41       0.000000000000
 42       0.000000000000
 43       0.000000000000
 44      -0.000000000000
 45       0.000000000000
 46      -0.000000000000
 47      -0.000000000000
 48      -0.000000000000
 49       0.000000000000
 50      -0.000000000000
 51       0.000000000000
 52      -0.000000000000
 53      -0.000000000000
 54      -0.000067086900
 55      -0.000000000000
 56      -0.000000000000
 57       0.000000000000
 58       0.000259826447
 59      -0.000000000000
 60       0.000000000000
 61       0.000207965370
 62       0.000000000000
 63      -0.000000000000
 64      -0.000000000000
 65      -0.000805446414
 66       0.000000000000
 67      -0.000000000000
 68      -0.000000000000
 69       0.000000000000
 70       0.000000000000
 71       0.000000000000
 72      -0.000000000000
 73      -0.000000000000
 74       0.000000000000
 75       0.000000000000
 Sym=     1a
 Ene= -6.67652559553895E+00
 Spin= Alpha
 Occup= 1.000000
  1       0.000000000000
  2       0.000000000000
  3      -0.000000000000
  4      -0.000000000000
  5       0.000000000000
  6       0.000000000000
  7      -0.000000000000
  8      -0.000000000000
  9       0.000000000000
 10      -0.000000000000
 11      -0.000000000000
 12       0.000000000000
 13      -0.000000000000
 14      -0.399483557624
 15      -0.000000000000
 16       0.000000000000
 17       0.624812539197
 18       0.000000000000
 19      -0.000000000000
 20       0.412933647216
 21      -0.000000000000
 22      -0.000000000000
 23       0.124201724843
 24       0.000000000000
 25       0.000000000000
 26       0.005838397046
 27      -0.000000000000
 28      -0.000000000000
 29       0.001104673731
 30       0.000000000000
 31       0.000000000000
 32      -0.000178036537
 33      -0.000000000000
 34      -0.000000000000
 35      -0.000000000000
 36       0.000000000000
 37      -0.000000000000
 38       0.000000000000
 39       0.000000000000
 40       0.000000000000
 41      -0.000000000000
 42       0.000000000000
 43      -0.000000000000
 44       0.000000000000
 45       0.000000000000
 46       0.000000000000
 47       0.000000000000
 48       0.000000000000
 49      -0.000000000000
 50       0.000000000000
 51       0.000000000000
 52       0.000000000000
 53      -0.000164328674
 54       0.000000000000
 55       0.000000000000
 56      -0.000212147406
 57      -0.000000000000
 58       0.000000000000
 59       0.000000000000
 60       0.000509409040
 61      -0.000000000000
 62       0.000000000000
 63       0.000657644243
 64       0.000000000000
 65      -0.000000000000
 66       0.000000000000
 67       0.000000000000
 68       0.000000000000
 69       0.000000000000
 70      -0.000000000000
 71       0.000000000000
 72       0.000000000000
 73       0.000000000000
 74      -0.000000000000
 75       0.000000000000
 Sym=     1a
 Ene= -6.65653980027597E+00
 Spin= Alpha
 Occup= 1.000000
  1      -0.000000000000
  2       0.000000000000
  3      -0.000000000000
  4       0.000000000000
  5       0.000000000000
  6       0.000000000000
  7      -0.000000000000
  8      -0.000000000000
  9      -0.000000000000
 10      -0.000000000000
 11       0.000000000000
 12       0.000000000000
 13      -0.399715778335
 14      -0.000000000000
 15       0.000000000000
 16       0.625376973874
 17      -0.000000000000
 18      -0.000000000000
 19       0.413601194278
 20       0.000000000000
 21       0.000000000000
 22       0.122981254699
 23      -0.000000000000
 24      -0.000000000000
 25       0.005427892241
 26       0.000000000000
 27      -0.000000000000
 28       0.001076407742
 29      -0.000000000000
 30      -0.000000000000
 31      -0.000180377993
 32       0.000000000000
 33       0.000000000000
 34       0.000000000000
 35       0.000000000000
 36      -0.000000000000
 37       0.000000000000
 38      -0.000000000000
 39      -0.000000000000
 40      -0.000000000000
 41       0.000000000000
 42      -0.000000000000
 43       0.000000000000
 44       0.000000000000
 45       0.000000000000
 46       0.000000000000
 47      -0.000000000000
 48      -0.000000000000
 49      -0.000000000000
 50      -0.000000000000
 51      -0.000000000000
 52       0.000000000000
 53      -0.000000000000
 54       0.000000000000
 55      -0.000203090735
 56       0.000000000000
 57      -0.000000000000
 58       0.000000000000
 59       0.000262189012
 60      -0.000000000000
 61      -0.000000000000
 62       0.000626591860
 63       0.000000000000
 64       0.000000000000
 65      -0.000000000000
 66      -0.000808926613
 67      -0.000000000000
 68       0.000000000000
 69       0.000000000000
 70      -0.000000000000
 71       0.000000000000
 72       0.000000000000
 73      -0.000000000000
 74      -0.000000000000
 75       0.000000000000
 Sym=     1a
 Ene= -2.66273051172647E+00
 Spin= Alpha
 Occup= 1.000000
  1       0.000000000000
  2       0.000000000000
  3       0.000000000000
  4      -0.000000000000
  5      -0.000000000000
  6      -0.000000000000
  7       0.000000000000
  8       0.000000000000
  9      -0.000000000000
 10      -0.000000000000
 11       0.000000000000
 12      -0.000000000000
 13       0.000000000000
 14      -0.000000000000
 15       0.000000000000
 16      -0.000000000000
 17       0.000000000000
 18      -0.000000000000
 19       0.000000000000
 20      -0.000000000000
 21      -0.000000000000
 22      -0.000000000000
 23       0.000000000000
 24       0.000000000000
 25       0.000000000000
 26       0.000000000000
 27      -0.000000000000
 28      -0.000000000000
 29      -0.000000000000
 30       0.000000000000
 31       0.000000000000
 32      -0.000000000000
 33      -0.742257658106
 34       0.000000000000
 35       0.000000000000
 36       0.428542658707
 37       0.000000000000
 38      -0.184535138546
 39      -0.000000000000
 40      -0.000000000000
 41       0.106541411913
 42      -0.000000000000
 43      -0.046428515348
 44      -0.000000000000
 45       0.000000000000
 46       0.026805515834
 47      -0.000000000000
 48      -0.001413944596
 49      -0.000000000000
 50       0.000000000000
 51       0.000816341293
 52       0.000000000000
 53       0.000000000000
 54       0.000000000000
 55       0.000000000000
 56      -0.000000000000
 57      -0.000000000000
 58       0.000000000000
 59       0.000000000000
 60       0.000000000000
 61      -0.000000000000
 62      -0.000000000000
 63       0.000000000000
 64      -0.000000000000
 65       0.000000000000
 66       0.000000000000
 67      -0.000518626923
 68      -0.000000000000
 69       0.000000000000
 70      -0.000463874022
 71       0.000000000000
 72       0.000000000000
 73      -0.000000000000
 74      -0.000613647650
 75       0.000000000000
 Sym=     1a
 Ene= -2.66273051172622E+00
 Spin= Alpha
 Occup= 1.000000
  1      -0.000000000000
  2      -0.000000000000
  3       0.000000000000
  4      -0.000000000000
  5       0.000000000000
  6      -0.000000000000
  7       0.000000000000
  8      -0.000000000000
  9       0.000000000000
 10      -0.000000000000
 11      -0.000000000000
 12      -0.000000000000
 13      -0.000000000000
 14      -0.000000000000
 15      -0.000000000000
 16       0.000000000000
 17      -0.000000000000
 18       0.000000000000
 19      -0.000000000000
 20       0.000000000000
 21      -0.000000000000
 22       0.000000000000
 23      -0.000000000000
 24       0.000000000000
 25      -0.000000000000
 26       0.000000000000
 27      -0.000000000000
 28       0.000000000000
 29      -0.000000000000
 30      -0.000000000000
 31      -0.000000000000
 32      -0.000000000000
 33       0.000000000000
 34      -0.857085317427
 35      -0.000000000000
 36       0.000000000000
 37      -0.000000000000
 38      -0.000000000000
 39      -0.213082823828
 40       0.000000000000
 41       0.000000000000
 42      -0.000000000000
 43      -0.000000000000
 44      -0.053611031668
 45      -0.000000000000
 46      -0.000000000000
 47      -0.000000000000
 48      -0.000000000000
 49      -0.001632682586
 50      -0.000000000000
 51      -0.000000000000
 52       0.000000000000
 53       0.000000000000
 54       0.000000000000
 55      -0.000000000000
 56       0.000000000000
 57       0.000000000000
 58       0.000000000000
 59      -0.000000000000
 60       0.000000000000
 61      -0.000000000000
 62      -0.000000000000
 63      -0.000000000000
 64      -0.000000000000
 65       0.000000000000
 66       0.000000000000
 67      -0.000000000000
 68      -0.000328008466
 69      -0.000000000000
 70       0.000000000000
 71       0.000000000000
 72       0.000867828830
 73      -0.000000000000
 74      -0.000000000000
 75       0.000000000000
 Sym=     1a
 Ene= -2.64862621369580E+00
 Spin= Alpha
 Occup= 1.000000
  1      -0.000000000000
  2       0.000000000000
  3      -0.000000000000
  4       0.000000000000
  5       0.000000000000
  6      -0.000000000000
  7      -0.000000000000
  8       0.000000000000
  9       0.000000000000
 10      -0.000000000000
 11       0.000000000000
 12       0.000000000000
 13      -0.000000000000
 14      -0.000000000000
 15       0.000000000000
 16       0.000000000000
 17      -0.000000000000
 18      -0.000000000000
 19      -0.000000000000
 20       0.000000000000
 21       0.000000000000
 22       0.000000000000
 23      -0.000000000000
 24      -0.000000000000
 25      -0.000000000000
 26       0.000000000000
 27       0.000000000000
 28       0.000000000000
 29      -0.000000000000
 30       0.000000000000
 31       0.000000000000
 32       0.000000000000
 33      -0.000000000000
 34      -0.000000000000
 35      -0.000000000000
 36      -0.000000000000
 37      -0.858536271305
 38      -0.000000000000
 39      -0.000000000000
 40      -0.000000000000
 41      -0.000000000000
 42      -0.211937764155
 43      -0.000000000000
 44       0.000000000000
 45       0.000000000000
 46      -0.000000000000
 47      -0.051892497820
 48       0.000000000000
 49       0.000000000000
 50       0.000000000000
 51       0.000000000000
 52      -0.001604944244
 53      -0.000000000000
 54       0.000000000000
 55      -0.000000000000
 56       0.000000000000
 57      -0.000000000000
 58      -0.000000000000
 59      -0.000000000000
 60       0.000000000000
 61      -0.000000000000
 62       0.000000000000
 63       0.000000000000
 64      -0.000000000000
 65       0.000000000000
 66       0.000000000000
 67      -0.000000000000
 68       0.000000000000
 69       0.000000000000
 70       0.000000000000
 71      -0.000461899350
 72      -0.000000000000
 73      -0.000000000000
 74      -0.000000000000
 75       0.001222070811
 Sym=     1a
 Ene= -2.64862621369578E+00
 Spin= Alpha
 Occup= 1.000000
  1      -0.000000000000
  2       0.000000000000
  3      -0.000000000000
  4      -0.000000000000
  5       0.000000000000
  6      -0.000000000000
  7       0.000000000000
  8      -0.000000000000
  9       0.000000000000
 10      -0.000000000000
 11       0.000000000000
 12      -0.000000000000
 13       0.000000000000
 14      -0.000000000000
 15       0.000000000000
 16      -0.000000000000
 17       0.000000000000
 18      -0.000000000000
 19      -0.000000000000
 20      -0.000000000000
 21       0.000000000000
 22       0.000000000000
 23      -0.000000000000
 24      -0.000000000000
 25      -0.000000000000
 26       0.000000000000
 27       0.000000000000
 28      -0.000000000000
 29      -0.000000000000
 30      -0.000000000000
 31       0.000000000000
 32       0.000000000000
 33       0.000000000000
 34      -0.000000000000
 35      -0.858536271305
 36       0.000000000000
 37      -0.000000000000
 38      -0.000000000000
 39       0.000000000000
 40      -0.211937764155
 41      -0.000000000000
 42      -0.000000000000
 43       0.000000000000
 44      -0.000000000000
 45      -0.051892497820
 46       0.000000000000
 47      -0.000000000000
 48       0.000000000000
 49      -0.000000000000
 50      -0.001604944244
 51       0.000000000000
 52       0.000000000000
 53       0.000000000000
 54      -0.000000000000
 55      -0.000000000000
 56       0.000000000000
 57      -0.000000000000
 58       0.000000000000
 59       0.000000000000
 60      -0.000000000000
 61      -0.000000000000
 62       0.000000000000
 63      -0.000000000000
 64       0.000000000000
 65      -0.000000000000
 66      -0.000000000000
 67      -0.000000000000
 68       0.000000000000
 69      -0.000979836488
 70      -0.000000000000
 71       0.000000000000
 72       0.000000000000
 73       0.000864134558
 74       0.000000000000
 75       0.000000000000
 Sym=     1a
 Ene= -2.64401636780457E+00
 Spin= Alpha
 Occup= 1.000000
  1       0.000488386207
  2       0.000363091487
  3       0.000071715933
  4      -0.001391903732
  5      -0.002135612829
  6      -0.000507936083
  7       0.004418128578
  8       0.005052604633
  9      -0.006462792293
 10      -0.001839832611
 11      -0.000185946995
 12       0.000000000000
 13      -0.000000000000
 14       0.000000000000
 15       0.000000000000
 16       0.000000000000
 17      -0.000000000000
 18      -0.000000000000
 19      -0.000000000000
 20       0.000000000000
 21       0.000000000000
 22       0.000000000000
 23      -0.000000000000
 24      -0.000000000000
 25      -0.000000000000
 26       0.000000000000
 27       0.000000000000
 28       0.000000000000
 29      -0.000000000000
 30       0.000000000000
 31       0.000000000000
 32       0.000000000000
 33      -0.429498131563
 34       0.000000000000
 35       0.000000000000
 36      -0.743912585637
 37      -0.000000000000
 38      -0.105759207418
 39      -0.000000000000
 40      -0.000000000000
 41      -0.183180320620
 42       0.000000000000
 43      -0.025695574651
 44      -0.000000000000
 45      -0.000000000000
 46      -0.044506040827
 47       0.000000000000
 48      -0.000797840518
 49      -0.000000000000
 50       0.000000000000
 51      -0.001381900313
 52      -0.000000000000
 53       0.000000000000
 54       0.000000000000
 55       0.000000000000
 56      -0.000000000000
 57       0.000000000000
 58       0.000000000000
 59      -0.000000000000
 60       0.000000000000
 61      -0.000000000000
 62      -0.000000000000
 63       0.000000000000
 64       0.000000000000
 65      -0.000000000000
 66      -0.000000000000
 67      -0.000535847202
 68       0.000000000000
 69       0.000000000000
 70      -0.000798793847