
                                 *****************
                                 * O   R   C   A *
                                 *****************

           --- An Ab Initio, DFT and Semiempirical electronic structure package ---

                  #######################################################
                  #                        -***-                        #
                  #  Department of molecular theory and spectroscopy    #
                  #              Directorship: Frank Neese              #
                  # Max Planck Institute for Chemical Energy Conversion #
                  #                  D-45470 Muelheim/Ruhr              #
                  #                       Germany                       #
                  #                                                     #
                  #                  All rights reserved                #
                  #                        -***-                        #
                  #######################################################


                         Program Version 4.0.1.2 - RELEASE -


 With contributions from (in alphabetic order):
   Daniel Aravena         : Magnetic Properties
   Michael Atanasov       : Ab Initio Ligand Field Theory
   Ute Becker             : Parallelization
   Martin Brehm           : Molecular dynamics
   Dmytro Bykov           : SCF Hessian
   Vijay G. Chilkuri      : MRCI spin determinant printing
   Dipayan Datta          : RHF DLPNO-CCSD density
   Achintya Kumar Dutta   : EOM-CC, STEOM-CC
   Dmitry Ganyushin       : Spin-Orbit,Spin-Spin,Magnetic field MRCI
   Yang Guo               : DLPNO-NEVPT2, CIM, IAO-localization
   Andreas Hansen         : Spin unrestricted coupled pair/coupled cluster methods
   Lee Huntington         : MR-EOM, pCC
   Robert Izsak           : Overlap fitted RIJCOSX, COSX-SCS-MP3, EOM
   Christian Kollmar      : KDIIS, OOCD, Brueckner-CCSD(T), CCSD density
   Simone Kossmann        : Meta GGA functionals, TD-DFT gradient, OOMP2, MP2 Hessian
   Martin Krupicka        : AUTO-CI
   Dagmar Lenk            : GEPOL surface
   Dimitrios Liakos       : Extrapolation schemes; parallel MDCI
   Dimitrios Manganas     : ROCIS; embedding schemes
   Dimitrios Pantazis     : SARC Basis sets
   Taras Petrenko         : DFT Hessian,TD-DFT gradient, ASA, ECA, R-Raman, ABS, FL, XAS/XES, NRVS
   Peter Pinski           : DLPNO-MP2
   Christoph Reimann      : Effective Core Potentials
   Marius Retegan         : Local ZFS, SOC
   Christoph Riplinger    : Optimizer, TS searches, QM/MM, DLPNO-CCSD(T), (RO)-DLPNO pert. Triples
   Tobias Risthaus        : Range-separated hybrids, TD-DFT gradient, RPA, STAB
   Michael Roemelt        : Restricted open shell CIS
   Masaaki Saitow         : Open-shell DLPNO
   Barbara Sandhoefer     : DKH picture change effects
   Kantharuban Sivalingam : CASSCF convergence, NEVPT2, FIC-MRCI
   Georgi Stoychev        : AutoAux
   Boris Wezisla          : Elementary symmetry handling
   Frank Wennmohs         : Technical directorship


 We gratefully acknowledge several colleagues who have allowed us to
 interface, adapt or use parts of their codes:
   Stefan Grimme, W. Hujo, H. Kruse,             : VdW corrections, initial TS optimization,
                  C. Bannwarth                     DFT functionals, gCP, sTDA/sTD-DF
   Ed Valeev                                     : LibInt (2-el integral package), F12 methods
   Garnet Chan, S. Sharma, J. Yang, R. Olivares  : DMRG
   Ulf Ekstrom                                   : XCFun DFT Library
   Mihaly Kallay                                 : mrcc  (arbitrary order and MRCC methods)
   Andreas Klamt, Michael Diedenhofen            : otool_cosmo (COSMO solvation model)
   Jiri Pittner, Ondrej Demel                    : Mk-CCSD
   Frank Weinhold                                : gennbo (NPA and NBO analysis)
   Christopher J. Cramer and Donald G. Truhlar   : smd solvation model


 Your calculation uses the libint2 library for the computation of 2-el integrals
 For citations please refer to: http://libint.valeyev.net

 This ORCA versions uses:
   CBLAS   interface :  Fast vector & matrix operations
   LAPACKE interface :  Fast linear algebra routines
   SCALAPACK package :  Parallel linear algebra routines




*****************************************
The coordinations will be read from file: ../../../../chem_database/C.xyz
*****************************************


Your calculation utilizes the basis: cc-pVQZ 
       H, B-Ne : Obtained from the ccRepo (grant-hill.group.shef.ac.uk/ccrepo) Feb. 2017
                 T. H. Dunning, Jr., J. Chem. Phys. 90, 1007 (1989)
            He : Obtained from the ccRepo (grant-hill.group.shef.ac.uk/ccrepo) Feb. 2017
                 D. E. Woon, T. H. Dunning, Jr., J. Chem. Phys. 100, 2975 (1994)
  Li-Be, Na-Mg : Obtained from the ccRepo (grant-hill.group.shef.ac.uk/ccrepo) Feb. 2017
                 B. P. Prascher, D. E. Woon, K. A. Peterson, T. H. Dunning, Jr., A. K. Wilson, Theor. Chem. Acc. 128, 69 (2011)
         Al-Ar : Obtained from the ccRepo (grant-hill.group.shef.ac.uk/ccrepo) Feb. 2017
                 D. E. Woon, T. H. Dunning, Jr., J. Chem. Phys. 98, 1358 (1993)
            Ca : Obtained from the Peterson Research Group Website (tyr0.chem.wsu.edu/~kipeters) Feb. 2017
                 J. Koput, K. A. Peterson, J. Phys. Chem. 106, 9595 (2002)
         Sc-Zn : Obtained from the ccRepo (grant-hill.group.shef.ac.uk/ccrepo) Feb. 2017
                 N. B. Balabanov, K. A. Peterson, J. Chem. Phys. 123, 064107 (2005)
                 N. B. Balabanov, K. A. Peterson, J. Chem. Phys. 125, 074110 (2006)
         Ga-Kr : Obtained from the ccRepo (grant-hill.group.shef.ac.uk/ccrepo) Feb. 2017
                 A. K. Wilson, D. E. Woon, K. A. Peterson, T. H. Dunning, Jr., J. Chem. Phys. 110, 7667 (1999)

================================================================================
                                        WARNINGS
                       Please study these warnings very carefully!
================================================================================

Warning: TCutStore was < 0. Adjusted to Thresh (uncritical)

WARNING: your system is open-shell and RHF/RKS was chosen
  ===> : WILL SWITCH to UHF/UKS


INFO   : the flag for use of LIBINT has been found!

================================================================================
                                       INPUT FILE
================================================================================
NAME = mol.inp
|  1> # ================================================================
|  2> # Orca input file
|  3> # ================================================================
|  4> ! HF cc-pVQZ VeryTightSCF UseSym
|  5> 
|  6> ! PAL4
|  7> 
|  8> %scf
|  9>   STABPerform true
| 10> #  STABRestartUHFifUnstable true
| 11> end
| 12> 
| 13> 
| 14> 
| 15> * xyzfile 0 3 ../../../../chem_database/C.xyz
| 16> 
| 17>                          ****END OF INPUT****
================================================================================

------------------------------------------------------------------------------
                            SYMMETRY HANDLING SETUP
------------------------------------------------------------------------------

------------------
SYMMETRY DETECTION
------------------
Preparing Data                    ... done
Detection Threshold:    SymThresh ... 1.0000e-04

Point Group will now be determined:
Moving molecule to center of mass ... done

POINT GROUP                       ... Kh

The coordinates will now be cleaned:
Structure cleanup requested       ... yes
Selected point group              ... Kh
Cleaning Tolerance      SymThresh ... 1.0000e-04

Cleaning coordinates              ... done

-----------------------------------------------
SYMMETRY-PERFECTED CARTESIAN COORDINATES (A.U.)
-----------------------------------------------
Warning (ORCA_SYM): Coordinates were not cleaned so far!

------------------
SYMMETRY REDUCTION
------------------
ORCA supports only abelian point groups.
It is now checked, if the determined point group is supported:
Point Group ( Kh    ) is          ... NOT supported
Reducing to abelian subgroup      ... D2h

(Re)building abelian point group:
Creating Character Table          ... done
Making direct product table       ... done
Constructing symmetry operations  ... done
Creating atom transfer table      ... done
Creating asymmetric unit          ... done

----------------------
ASYMMETRIC UNIT IN D2h
----------------------
  #  AT     MASS              COORDS (A.U.)             BAS
   0 C   12.0110   0.00000000   0.00000000   0.00000000   0

----------------------
SYMMETRY ADAPTED BASIS
----------------------
The coefficients for the symmetry adapted linear combinations (SALCS)
of basis functions will now be computed:
Number of basis functions         ...    55
Preparing memory                  ... done
Constructing Gamma(red)           ... done
Reducing Gamma(red)               ... done
Constructing SALCs                ... done
Checking SALC integrity           ... nothing suspicious
Normalizing SALCs                 ... done

Storing the symmetry object:
Symmetry file                     ... mol.sym.tmp
Writing symmetry information      ... done

                       ****************************
                       * Single Point Calculation *
                       ****************************

---------------------------------
CARTESIAN COORDINATES (ANGSTROEM)
---------------------------------
  C      0.000000    0.000000    0.000000

----------------------------
CARTESIAN COORDINATES (A.U.)
----------------------------
  NO LB      ZA    FRAG     MASS         X           Y           Z
   0 C     6.0000    0    12.011    0.000000    0.000000    0.000000

--------------------------------
INTERNAL COORDINATES (ANGSTROEM)
--------------------------------
 C      0   0   0     0.000000000000     0.00000000     0.00000000

---------------------------
INTERNAL COORDINATES (A.U.)
---------------------------
 C      0   0   0     0.000000000000     0.00000000     0.00000000

---------------------
BASIS SET INFORMATION
---------------------
There are 1 groups of distinct atoms

 Group   1 Type C   : 21s6p3d2f1g contracted to 5s4p3d2f1g pattern {99111/3111/111/11/1}

Atom   0C    basis set group =>   1


           ************************************************************
           *        Program running with 4 parallel MPI-processes     *
           *              working on a common directory               *
           ************************************************************
------------------------------------------------------------------------------
                           ORCA GTO INTEGRAL CALCULATION
------------------------------------------------------------------------------

                         BASIS SET STATISTICS AND STARTUP INFO

 # of primitive gaussian shells          ...   33
 # of primitive gaussian functions       ...   77
 # of contracted shells                  ...   15
 # of contracted basis functions         ...   55
 Highest angular momentum                ...    4
 Maximum contraction depth               ...    9
 Integral package used                   ... LIBINT
 Integral threshhold            Thresh   ...  1.000e-12
 Primitive cut-off              TCut     ...  1.000e-14


------------------------------ INTEGRAL EVALUATION ----------------------------


 * One electron integrals 
 Pre-screening matrix                    ... done
 Shell pair data                         ... done (   0.000 sec)



           ************************************************************
           *        Program running with 4 parallel MPI-processes     *
           *              working on a common directory               *
           ************************************************************
-------------------------------------------------------------------------------
                                 ORCA SCF
-------------------------------------------------------------------------------

------------
SCF SETTINGS
------------
Hamiltonian:
 Ab initio Hamiltonian  Method          .... Hartree-Fock(GTOs)


General Settings:
 Integral files         IntName         .... mol
 Hartree-Fock type      HFTyp           .... UHF
 Total Charge           Charge          ....    0
 Multiplicity           Mult            ....    3
 Number of Electrons    NEL             ....    6
 Basis Dimension        Dim             ....   55
 Nuclear Repulsion      ENuc            ....      0.0000000000 Eh

 Symmetry handling      UseSym         .... ON
 Point group                           .... D2h
 Used point group                      .... D2h
 Number of irreps                      .... 8
   Irrep   Ag has   14 symmetry adapted basis functions (ofs=   0)
   Irrep  B1g has    5 symmetry adapted basis functions (ofs=  14)
   Irrep  B2g has    5 symmetry adapted basis functions (ofs=  19)
   Irrep  B3g has    5 symmetry adapted basis functions (ofs=  24)
   Irrep   Au has    2 symmetry adapted basis functions (ofs=  29)
   Irrep  B1u has    8 symmetry adapted basis functions (ofs=  31)
   Irrep  B2u has    8 symmetry adapted basis functions (ofs=  39)
   Irrep  B3u has    8 symmetry adapted basis functions (ofs=  47)

Convergence Acceleration:
 DIIS                   CNVDIIS         .... on
   Start iteration      DIISMaxIt       ....    12
   Startup error        DIISStart       ....  0.200000
   # of expansion vecs  DIISMaxEq       ....     5
   Bias factor          DIISBfac        ....   1.050
   Max. coefficient     DIISMaxC        ....  10.000
 Newton-Raphson         CNVNR           .... off
 SOSCF                  CNVSOSCF        .... off
 Level Shifting         CNVShift        .... on
   Level shift para.    LevelShift      ....    0.2500
   Turn off err/grad.   ShiftErr        ....    0.0010
 Zerner damping         CNVZerner       .... off
 Static damping         CNVDamp         .... on
   Fraction old density DampFac         ....    0.7000
   Max. Damping (<1)    DampMax         ....    0.9800
   Min. Damping (>=0)   DampMin         ....    0.0000
   Turn off err/grad.   DampErr         ....    0.1000
 Fernandez-Rico         CNVRico         .... off

SCF Procedure:
 Maximum # iterations   MaxIter         ....   125
 SCF integral mode      SCFMode         .... Direct
   Integral package                     .... LIBINT
 Reset frequeny         DirectResetFreq ....    20
 Integral Threshold     Thresh          ....  1.000e-12 Eh
 Primitive CutOff       TCut            ....  1.000e-14 Eh

Convergence Tolerance:
 Convergence Check Mode ConvCheckMode   .... Total+1el-Energy
 Convergence forced     ConvForced      .... 0
 Energy Change          TolE            ....  1.000e-09 Eh
 1-El. energy change                    ....  1.000e-06 Eh
 DIIS Error             TolErr          ....  1.000e-08


Diagonalization of the overlap matrix:
Smallest eigenvalue                        ... 4.506e-03
Time for diagonalization                   ...    0.006 sec
Threshold for overlap eigenvalues          ... 1.000e-08
Number of eigenvalues below threshold      ... 0
Time for construction of square roots      ...    0.001 sec
Producing symmetrization matrix            ... done (   0.000 sec)
Total time needed                          ...    0.007 sec

-------------------
DFT GRID GENERATION
-------------------

General Integration Accuracy     IntAcc      ...  4.340
Radial Grid Type                 RadialGrid  ... Gauss-Chebyshev
Angular Grid (max. acc.)         AngularGrid ... Lebedev-110
Angular grid pruning method      GridPruning ... 3 (G Style)
Weight generation scheme         WeightScheme... Becke
Basis function cutoff            BFCut       ...    1.0000e-12
Integration weight cutoff        WCut        ...    1.0000e-14
Grids for H and He will be reduced by one unit

# of grid points (after initial pruning)     ...   1656 (   0.0 sec)
# of grid points (after weights+screening)   ...   1656 (   0.0 sec)
Grid point division into batches done        ...    0.0 sec
Reduced shell lists constructed in    0.0 sec

Total number of grid points                  ...     1656
Total number of batches                      ...       26
Average number of points per batch           ...       63
Average number of grid points per atom       ...     1656
Average number of shells per batch           ...    10.12 (67.50%)
Average number of basis functions per batch  ...    40.12 (72.95%)
Average number of large shells per batch     ...     8.62 (85.19%)
Average number of large basis fcns per batch ...    33.62 (83.80%)
Maximum spatial batch extension              ...  16.97, 31.36, 31.36 au
Average spatial batch extension              ...   4.10,  5.50,  6.76 au

Time for grid setup =    0.022 sec

------------------------------
INITIAL GUESS: MODEL POTENTIAL
------------------------------
Loading Hartree-Fock densities                     ... done
Calculating cut-offs                               ... done
Setting up the integral package                    ... done
Initializing the effective Hamiltonian             ... done
Starting the Coulomb interaction                   ... done (   0.0 sec)
Reading the grid                                   ... done
Mapping shells                                     ... done
Starting the XC term evaluation                    ... done (   0.0 sec)
done (   0.0 sec)
Diagonalizing the Hamiltonian                      ... done (   0.0 sec)
Back transforming the eigenvectors                 ... done (   0.0 sec)
Now organizing SCF variables                       ... done
The symmetry of the initial guess is 3-B2g
Irrep occupations for operator 0
    Ag -    2
   B1g -    0
   B2g -    0
   B3g -    0
    Au -    0
   B1u -    1
   B2u -    0
   B3u -    1
Irrep occupations for operator 1
    Ag -    2
   B1g -    0
   B2g -    0
   B3g -    0
    Au -    0
   B1u -    0
   B2u -    0
   B3u -    0
                      ------------------
                      INITIAL GUESS DONE (   0.2 sec)
                      ------------------
--------------
SCF ITERATIONS
--------------
ITER       Energy         Delta-E        Max-DP      RMS-DP      [F,P]     Damp
               ***  Starting incremental Fock matrix formation  ***
  0    -37.6773006221   0.000000000000 0.02123853  0.00054612  0.1320576 0.7000
  1    -37.6810855007  -0.003784878510 0.01514042  0.00044934  0.0944313 0.7000
                               ***Turning on DIIS***
  2    -37.6841039650  -0.003018464391 0.03560229  0.00116136  0.0669685 0.0000
  3    -37.6870312102  -0.002927245125 0.01125585  0.00034012  0.0073043 0.0000
  4    -37.6915028200  -0.004471609837 0.00760280  0.00021440  0.0040779 0.0000
  5    -37.6901102657   0.001392554305 0.00634945  0.00015426  0.0020509 0.0000
  6    -37.6920790642  -0.001968798458 0.00356887  0.00007342  0.0006782 0.0000
  7    -37.6932410638  -0.001161999649 0.00032405  0.00000585  0.0000625 0.0000
  8    -37.6933048654  -0.000063801581 0.00003634  0.00000083  0.0000148 0.0000
  9    -37.6933078088  -0.000002943388 0.00000562  0.00000010  0.0000019 0.0000
 10    -37.6933075278   0.000000280935 0.00000042  0.00000001  0.0000003 0.0000
                            ***DIIS convergence achieved***

               *****************************************************
               *                     SUCCESS                       *
               *           SCF CONVERGED AFTER  11 CYCLES          *
               *****************************************************


------------------------------------------------------------------------------
                          SCF STABILITY ANALYSIS                              
------------------------------------------------------------------------------


                       ****Iteration    0****

   Memory handling for direct AO based CIS:
   Memory per vector needed      ...     1 MB
   Memory needed                 ...     0 MB
   Memory available              ...  1024 MB
   Number of vectors per batch   ...  1024
   Number of batches             ...     1
   Time for densities:     0.000
   Using LibInt in JK Direct
   Time for J+K (Direct):     0.231
   Time for Sigma-Completion:     0.001
   Lowest Energy          :     0.053880226685
   Maximum Energy change  :     0.291284922838 (vector 2)
   Maximum residual norm  :     0.101081702797

                       ****Iteration    1****
   Time for densities:     0.000
   Using LibInt in JK Direct
   Time for J+K (Direct):     0.168
   Time for Sigma-Completion:     0.000
   Lowest Energy          :     0.000487941489
   Maximum Energy change  :     0.193073201451 (vector 2)
   Maximum residual norm  :     0.020989934155

                       ****Iteration    2****
   Time for densities:     0.000
   Using LibInt in JK Direct
   Time for J+K (Direct):     0.169
   Time for Sigma-Completion:     0.000
   Lowest Energy          :     0.000119406759
   Maximum Energy change  :     0.019058017092 (vector 2)
   Maximum residual norm  :     0.001130387785

                       ****Iteration    3****
   Time for densities:     0.000
   Using LibInt in JK Direct
   Time for J+K (Direct):     0.168
   Time for Sigma-Completion:     0.000
   Lowest Energy          :     0.000114978136
   Maximum Energy change  :     0.000645515951 (vector 2)
   Maximum residual norm  :     0.000024321149

      *** CONVERGENCE OF RESIDUAL NORM REACHED ***

----------------------------- 
SCF STABILITY ANALYSIS RESULT 
----------------------------- 

UHF/UKS->UHF/UKS - singlet - internal

   Root    Eigenvalue (au) 
     0       0.000115 
     1       0.000115 
     2       0.078508 

Stability Analysis indicates a stable HF/KS wave function.


Total time for performing the stability analysis:     0.742sec


----------------
TOTAL SCF ENERGY
----------------

Total Energy       :          -37.69330779 Eh           -1025.68705 eV

Components:
Nuclear Repulsion  :            0.00000000 Eh               0.00000 eV
Electronic Energy  :          -37.69330779 Eh           -1025.68705 eV
One Electron Energy:          -50.45130330 Eh           -1372.84976 eV
Two Electron Energy:           12.75799550 Eh             347.16271 eV

Virial components:
Potential Energy   :          -75.38716010 Eh           -2051.38892 eV
Kinetic Energy     :           37.69385230 Eh            1025.70187 eV
Virial Ratio       :            1.99998555


---------------
SCF CONVERGENCE
---------------

  Last Energy change         ...   -2.6688e-07  Tolerance :   1.0000e-09
  Last MAX-Density change    ...    1.4522e-07  Tolerance :   1.0000e-08
  Last RMS-Density change    ...    3.0752e-09  Tolerance :   1.0000e-09
  Last DIIS Error            ...    1.9410e-08  Tolerance :   1.0000e-08

             **** THE GBW FILE WAS UPDATED (mol.gbw) ****
             **** DENSITY FILE WAS UPDATED (mol.scfp.tmp) ****
             **** ENERGY FILE WAS UPDATED (mol.en.tmp) ****
----------------------
UHF SPIN CONTAMINATION
----------------------

Expectation value of <S**2>     :     2.010129
Ideal value S*(S+1) for S=1.0   :     2.000000
Deviation                       :     0.010129

----------------
ORBITAL ENERGIES
----------------
                 SPIN UP ORBITALS
  NO   OCC          E(Eh)            E(eV)    Irrep 
   0   1.0000     -11.345380      -308.7235    1-Ag
   1   1.0000      -0.828977       -22.5576    2-Ag
   2   1.0000      -0.438744       -11.9388    1-B1u
   3   1.0000      -0.438744       -11.9388    1-B3u
   4   0.0000       0.030316         0.8249    1-B2u
   5   0.0000       0.313304         8.5254    3-Ag
   6   0.0000       0.319654         8.6982    2-B1u
   7   0.0000       0.319654         8.6982    2-B3u
   8   0.0000       0.375212        10.2100    2-B2u
   9   0.0000       0.606384        16.5005    1-B2g
  10   0.0000       0.606384        16.5005    4-Ag
  11   0.0000       0.617049        16.7908    1-B1g
  12   0.0000       0.617049        16.7908    1-B3g
  13   0.0000       0.621743        16.9185    5-Ag
  14   0.0000       1.484465        40.3943    3-B1u
  15   0.0000       1.484465        40.3943    3-B3u
  16   0.0000       1.523489        41.4562    3-B2u
  17   0.0000       1.885227        51.2996    4-B2u
  18   0.0000       1.886948        51.3465    4-B3u
  19   0.0000       1.886948        51.3465    4-B1u
  20   0.0000       1.892214        51.4898    5-B2u
  21   0.0000       1.892214        51.4898    1-Au
  22   0.0000       1.901011        51.7291    5-B1u
  23   0.0000       1.901011        51.7291    5-B3u
  24   0.0000       1.915358        52.1195    6-Ag
  25   0.0000       2.055010        55.9197    2-B2g
  26   0.0000       2.055010        55.9197    7-Ag
  27   0.0000       2.066895        56.2431    2-B1g
  28   0.0000       2.066895        56.2431    2-B3g
  29   0.0000       2.072228        56.3882    8-Ag
  30   0.0000       5.075743       138.1180    9-Ag
  31   0.0000       5.078206       138.1850    3-B3g
  32   0.0000       5.078206       138.1850    3-B1g
  33   0.0000       5.085605       138.3864    3-B2g
  34   0.0000       5.085605       138.3864   10-Ag
  35   0.0000       5.097972       138.7229    4-B1g
  36   0.0000       5.097972       138.7229    4-B3g
  37   0.0000       5.115346       139.1956   11-Ag
  38   0.0000       5.115346       139.1956    4-B2g
  39   0.0000       5.721042       155.6775    6-B1u
  40   0.0000       5.721042       155.6775    6-B3u
  41   0.0000       5.724999       155.7852    6-B2u
  42   0.0000       6.208591       168.9443    7-B2u
  43   0.0000       6.211865       169.0334    7-B1u
  44   0.0000       6.211865       169.0334    7-B3u
  45   0.0000       6.221751       169.3024    8-B2u
  46   0.0000       6.221751       169.3024    2-Au
  47   0.0000       6.238429       169.7563    8-B1u
  48   0.0000       6.238429       169.7563    8-B3u
  49   0.0000       6.257523       170.2759   12-Ag
  50   0.0000       6.260268       170.3505    5-B1g
  51   0.0000       6.260268       170.3505    5-B3g
  52   0.0000       6.268856       170.5842    5-B2g
  53   0.0000       6.268856       170.5842   13-Ag
  54   0.0000      20.166729       548.7646   14-Ag

                 SPIN DOWN ORBITALS
  NO   OCC          E(Eh)            E(eV)    Irrep 
   0   1.0000     -11.300093      -307.4912    1-Ag
   1   1.0000      -0.583373       -15.8744    2-Ag
   2   0.0000       0.060909         1.6574    1-B2u
   3   0.0000       0.110026         2.9939    1-B1u
   4   0.0000       0.110026         2.9939    1-B3u
   5   0.0000       0.353742         9.6258    3-Ag
   6   0.0000       0.398379        10.8405    2-B2u
   7   0.0000       0.441221        12.0062    2-B3u
   8   0.0000       0.441221        12.0062    2-B1u
   9   0.0000       0.649020        17.6607    4-Ag
  10   0.0000       0.656759        17.8713    1-B3g
  11   0.0000       0.656759        17.8713    1-B1g
  12   0.0000       0.682818        18.5804    5-Ag
  13   0.0000       0.682818        18.5804    1-B2g
  14   0.0000       1.548502        42.1369    3-B2u
  15   0.0000       1.603035        43.6208    3-B1u
  16   0.0000       1.603035        43.6208    3-B3u
  17   0.0000       1.912709        52.0475    4-B2u
  18   0.0000       1.918128        52.1949    4-B3u
  19   0.0000       1.918128        52.1949    4-B1u
  20   0.0000       1.934526        52.6411    5-B2u
  21   0.0000       1.934526        52.6411    1-Au
  22   0.0000       1.963444        53.4280    5-B3u
  23   0.0000       1.963444        53.4280    5-B1u
  24   0.0000       1.986053        54.0432    6-Ag
  25   0.0000       2.125920        57.8492    7-Ag
  26   0.0000       2.140475        58.2453    2-B1g
  27   0.0000       2.140475        58.2453    2-B3g
  28   0.0000       2.188040        59.5396    2-B2g
  29   0.0000       2.188040        59.5396    8-Ag
  30   0.0000       5.102715       138.8519    9-Ag
  31   0.0000       5.107069       138.9704    3-B3g
  32   0.0000       5.107069       138.9704    3-B1g
  33   0.0000       5.120193       139.3275   10-Ag
  34   0.0000       5.120193       139.3275    3-B2g
  35   0.0000       5.142284       139.9287    4-B3g
  36   0.0000       5.142284       139.9287    4-B1g
  37   0.0000       5.173702       140.7836   11-Ag
  38   0.0000       5.173702       140.7836    4-B2g
  39   0.0000       5.744965       156.3285    6-B2u
  40   0.0000       5.798976       157.7982    6-B1u
  41   0.0000       5.798976       157.7982    6-B3u
  42   0.0000       6.248094       170.0193    7-B2u
  43   0.0000       6.256069       170.2363    7-B1u
  44   0.0000       6.256069       170.2363    7-B3u
  45   0.0000       6.280172       170.8922    8-B2u
  46   0.0000       6.280172       170.8922    2-Au
  47   0.0000       6.300815       171.4539   12-Ag
  48   0.0000       6.316796       171.8888    5-B1g
  49   0.0000       6.316796       171.8888    5-B3g
  50   0.0000       6.321903       172.0277    8-B1u
  51   0.0000       6.321903       172.0277    8-B3u
  52   0.0000       6.366450       173.2399    5-B2g
  53   0.0000       6.366450       173.2399   13-Ag
  54   0.0000      20.199196       549.6481   14-Ag

                    ********************************
                    * MULLIKEN POPULATION ANALYSIS *
                    ********************************

--------------------------------------------
MULLIKEN ATOMIC CHARGES AND SPIN POPULATIONS
--------------------------------------------
   0 C :   -0.000000    2.000000
Sum of atomic charges         :   -0.0000000
Sum of atomic spin populations:    2.0000000

-----------------------------------------------------
MULLIKEN REDUCED ORBITAL CHARGES AND SPIN POPULATIONS
-----------------------------------------------------
CHARGE
  0 C s       :     3.997002  s :     3.997002
      pz      :     0.999997  p :     1.999994
      px      :     0.999997
      py      :     0.000000
      dz2     :     0.000750  d :     0.002998
      dxz     :     0.000000
      dyz     :     0.000000
      dx2y2   :     0.002249
      dxy     :     0.000000
      f0      :     0.000001  f :     0.000006
      f+1     :     0.000000
      f-1     :     0.000000
      f+2     :     0.000002
      f-2     :     0.000000
      f+3     :     0.000003
      f-3     :     0.000000
      g0      :     0.000000  g :     0.000000
      g+1     :     0.000000
      g-1     :     0.000000
      g+2     :     0.000000
      g-2     :     0.000000
      g+3     :     0.000000
      g-3     :     0.000000
      g+4     :     0.000000
      g-4     :     0.000000

SPIN
  0 C s       :    -0.000252  s :    -0.000252
      pz      :     0.999997  p :     1.999994
      px      :     0.999997
      py      :     0.000000
      dz2     :     0.000063  d :     0.000252
      dxz     :     0.000000
      dyz     :     0.000000
      dx2y2   :     0.000189
      dxy     :    -0.000000
      f0      :     0.000001  f :     0.000006
      f+1     :     0.000000
      f-1     :     0.000000
      f+2     :     0.000002
      f-2     :     0.000000
      f+3     :     0.000003
      f-3     :     0.000000
      g0      :    -0.000000  g :    -0.000000
      g+1     :     0.000000
      g-1     :     0.000000
      g+2     :    -0.000000
      g-2     :     0.000000
      g+3     :     0.000000
      g-3     :     0.000000
      g+4     :    -0.000000
      g-4     :     0.000000


                     *******************************
                     * LOEWDIN POPULATION ANALYSIS *
                     *******************************

-------------------------------------------
LOEWDIN ATOMIC CHARGES AND SPIN POPULATIONS
-------------------------------------------
   0 C :   -0.000000    2.000000

----------------------------------------------------
LOEWDIN REDUCED ORBITAL CHARGES AND SPIN POPULATIONS
----------------------------------------------------
CHARGE
  0 C s       :     3.997002  s :     3.997002
      pz      :     0.999997  p :     1.999994
      px      :     0.999997
      py      :     0.000000
      dz2     :     0.000750  d :     0.002998
      dxz     :     0.000000
      dyz     :     0.000000
      dx2y2   :     0.002249
      dxy     :     0.000000
      f0      :     0.000001  f :     0.000006
      f+1     :     0.000000
      f-1     :     0.000000
      f+2     :     0.000002
      f-2     :     0.000000
      f+3     :     0.000003
      f-3     :     0.000000
      g0      :     0.000000  g :     0.000000
      g+1     :     0.000000
      g-1     :     0.000000
      g+2     :     0.000000
      g-2     :     0.000000
      g+3     :     0.000000
      g-3     :     0.000000
      g+4     :     0.000000
      g-4     :     0.000000

SPIN
  0 C s       :    -0.000252  s :    -0.000252
      pz      :     0.999997  p :     1.999994
      px      :     0.999997
      py      :     0.000000
      dz2     :     0.000063  d :     0.000252
      dxz     :     0.000000
      dyz     :     0.000000
      dx2y2   :     0.000189
      dxy     :    -0.000000
      f0      :     0.000001  f :     0.000006
      f+1     :     0.000000
      f-1     :     0.000000
      f+2     :     0.000002
      f-2     :     0.000000
      f+3     :     0.000003
      f-3     :     0.000000
      g0      :    -0.000000  g :    -0.000000
      g+1     :     0.000000
      g-1     :     0.000000
      g+2     :    -0.000000
      g-2     :     0.000000
      g+3     :     0.000000
      g-3     :     0.000000
      g+4     :    -0.000000
      g-4     :     0.000000


                      *****************************
                      * MAYER POPULATION ANALYSIS *
                      *****************************

  NA   - Mulliken gross atomic population
  ZA   - Total nuclear charge
  QA   - Mulliken gross atomic charge
  VA   - Mayer's total valence
  BVA  - Mayer's bonded valence
  FA   - Mayer's free valence

  ATOM       NA         ZA         QA         VA         BVA        FA
  0 C      6.0000     6.0000    -0.0000     2.0203     0.0000     2.0203

  Mayer bond orders larger than 0.1


-------
TIMINGS
-------

Total SCF time: 0 days 0 hours 0 min 2 sec 

Total time                  ....       2.993 sec
Sum of individual times     ....       2.978 sec  ( 99.5%)

Fock matrix formation       ....       2.064 sec  ( 69.0%)
Diagonalization             ....       0.009 sec  (  0.3%)
Density matrix formation    ....       0.001 sec  (  0.0%)
Population analysis         ....       0.001 sec  (  0.0%)
Initial guess               ....       0.136 sec  (  4.5%)
Orbital Transformation      ....       0.000 sec  (  0.0%)
Orbital Orthonormalization  ....       0.000 sec  (  0.0%)
DIIS solution               ....       0.004 sec  (  0.1%)
SCF Stability Analysis      ....       0.742 sec  ( 24.8%)

-------------------------   --------------------
FINAL SINGLE POINT ENERGY       -37.693307794719
-------------------------   --------------------


                            ***************************************
                            *     ORCA property calculations      *
                            ***************************************

                                    ---------------------
                                    Active property flags
                                    ---------------------
   (+) Dipole Moment


------------------------------------------------------------------------------
                       ORCA ELECTRIC PROPERTIES CALCULATION
------------------------------------------------------------------------------

Dipole Moment Calculation                       ... on
Quadrupole Moment Calculation                   ... off
Polarizability Calculation                      ... off
GBWName                                         ... mol.gbw
Electron density file                           ... mol.scfp.tmp
The origin for moment calculation is the CENTER OF MASS  = ( 0.000000,  0.000000  0.000000)

-------------
DIPOLE MOMENT
-------------
                                X             Y             Z
Electronic contribution:      0.00000      -0.00000       0.00000
Nuclear contribution   :      0.00000       0.00000       0.00000
                        -----------------------------------------
Total Dipole Moment    :      0.00000      -0.00000       0.00000
                        -----------------------------------------
Magnitude (a.u.)       :      0.00000
Magnitude (Debye)      :      0.00000


Timings for individual modules:

Sum of individual times         ...        3.664 sec (=   0.061 min)
GTO integral calculation        ...        0.453 sec (=   0.008 min)  12.4 %
SCF iterations                  ...        3.212 sec (=   0.054 min)  87.6 %
                             ****ORCA TERMINATED NORMALLY****
TOTAL RUN TIME: 0 days 0 hours 0 minutes 4 seconds 70 msec
