[Molden Format]
[Title]
 Molden file created by orca_2mkl for BaseName=mol

[Atoms] AU
C    1   6          0.0000000000         0.0000000000         0.0000000000 
[GTO]
  1 0
s   9 1.0 
    33980.0000000000         0.1634507261
     5089.0000000000         0.3044212243
     1157.0000000000         0.5257838690
      326.6000000000         0.8468983407
      106.1000000000         1.2557643734
       38.1100000000         1.6186445796
       14.7500000000         1.6508946063
        6.0350000000         1.1035299844
        2.5300000000         0.3124856748
s   9 1.0 
    33980.0000000000        -0.0993718991
     5089.0000000000        -0.1901269771
     1157.0000000000        -0.3254334076
      326.6000000000        -0.5336611751
      106.1000000000        -0.7952977919
       38.1100000000        -1.0949380078
       14.7500000000        -1.2138132005
        6.0350000000        -1.1385061172
        2.5300000000        -0.4947488337
s   1 1.0 
        0.7355000000         0.5660399710
s   1 1.0 
        0.2905000000         0.2820133677
s   1 1.0 
        0.1111000000         0.1371499446
p   3 1.0 
       34.5100000000         3.7780189504
        7.9150000000         4.0287265029
        2.3680000000         3.5154650741
p   1 1.0 
        0.8132000000         1.1007452001
p   1 1.0 
        0.2890000000         0.3020385602
p   1 1.0 
        0.1007000000         0.0808587319
d   1 1.0 
        1.8480000000         8.3502316859
d   1 1.0 
        0.6490000000         1.3378219059
d   1 1.0 
        0.2280000000         0.2144648217
f   1 1.0 
        1.4190000000        12.5302711484
f   1 1.0 
        0.4850000000         1.1192290943
g   1 1.0 
        1.0110000000         6.7847699297

[5D]
[9G]
[MO]
 Sym=     1a
 Ene= -1.13453801888713E+01
 Spin= Alpha
 Occup= 1.000000
  1       0.990331925705
  2      -0.001269796302
  3       0.019101167888
  4      -0.003581478842
  5       0.001403295131
  6       0.000000000000
  7      -0.000000000000
  8       0.000000000000
  9       0.000000000000
 10      -0.000000000000
 11       0.000000000000
 12       0.000000000000
 13      -0.000000000000
 14      -0.000000000000
 15       0.000000000000
 16      -0.000000000000
 17      -0.000000000000
 18       0.000425726855
 19       0.000000000000
 20       0.000000000000
 21       0.000737380543
 22       0.000000000000
 23       0.000340487738
 24      -0.000000000000
 25      -0.000000000000
 26       0.000589742062
 27       0.000000000000
 28       0.000054902888
 29       0.000000000000
 30       0.000000000000
 31       0.000095094592
 32       0.000000000000
 33      -0.000000000000
 34      -0.000000000000
 35      -0.000000000000
 36      -0.000000000000
 37       0.000000000000
 38       0.000000000000
 39       0.000000000000
 40       0.000000000000
 41      -0.000000000000
 42       0.000000000000
 43      -0.000000000000
 44      -0.000000000000
 45      -0.000000000000
 46       0.000000000000
 47       0.000000260995
 48      -0.000000000000
 49      -0.000000000000
 50       0.000000389069
 51      -0.000000000000
 52      -0.000000000000
 53       0.000000000000
 54      -0.000000514690
 55       0.000000000000
 Sym=     1a
 Ene= -8.28977245220045E-01
 Spin= Alpha
 Occup= 1.000000
  1       0.001096903044
  2       0.353035766437
  3       0.286434914573
  4       0.618590857085
  5       0.239014952733
  6      -0.000000000000
  7       0.000000000000
  8      -0.000000000000
  9      -0.000000000000
 10       0.000000000000
 11       0.000000000000
 12      -0.000000000000
 13       0.000000000000
 14       0.000000000000
 15      -0.000000000000
 16       0.000000000000
 17      -0.000000000000
 18       0.002972043100
 19       0.000000000000
 20       0.000000000000
 21       0.005147729652
 22       0.000000000000
 23       0.008757513203
 24      -0.000000000000
 25      -0.000000000000
 26       0.015168457816
 27       0.000000000000
 28       0.011906249002
 29       0.000000000000
 30       0.000000000000
 31       0.020622228199
 32       0.000000000000
 33       0.000000000000
 34      -0.000000000000
 35      -0.000000000000
 36       0.000000000000
 37       0.000000000000
 38      -0.000000000000
 39      -0.000000000000
 40       0.000000000000
 41      -0.000000000000
 42       0.000000000000
 43      -0.000000000000
 44      -0.000000000000
 45      -0.000000000000
 46      -0.000000000000
 47      -0.000025742889
 48      -0.000000000000
 49      -0.000000000000
 50      -0.000038375233
 51      -0.000000000000
 52       0.000000000000
 53      -0.000000000000
 54       0.000050765661
 55       0.000000000000
 Sym=     1a
 Ene= -4.38744192609597E-01
 Spin= Alpha
 Occup= 1.000000
  1      -0.000000000000
  2      -0.000000000000
  3      -0.000000000000
  4       0.000000000000
  5      -0.000000000000
  6       0.000000000000
  7       0.000000000000
  8      -0.170489167593
  9      -0.000000000000
 10      -0.000000000000
 11      -0.345761598893
 12      -0.000000000000
 13      -0.000000000000
 14      -0.465749204752
 15       0.000000000000
 16       0.000000000000
 17      -0.242431223888
 18       0.000000000000
 19       0.000000000000
 20      -0.000000000000
 21      -0.000000000000
 22      -0.000000000000
 23       0.000000000000
 24      -0.000000000000
 25       0.000000000000
 26      -0.000000000000
 27       0.000000000000
 28      -0.000000000000
 29       0.000000000000
 30       0.000000000000
 31       0.000000000000
 32       0.000000000000
 33      -0.000161523793
 34      -0.000000000000
 35       0.000000000000
 36      -0.000208526320
 37       0.000000000000
 38       0.000000000000
 39       0.000000000000
 40      -0.000945972059
 41      -0.000000000000
 42      -0.000000000000
 43      -0.001221244676
 44      -0.000000000000
 45      -0.000000000000
 46      -0.000000000000
 47      -0.000000000000
 48       0.000000000000
 49       0.000000000000
 50       0.000000000000
 51       0.000000000000
 52      -0.000000000000
 53      -0.000000000000
 54       0.000000000000
 55       0.000000000000
 Sym=     1a
 Ene= -4.38744192609594E-01
 Spin= Alpha
 Occup= 1.000000
  1      -0.000000000000
  2      -0.000000000000
  3       0.000000000000
  4       0.000000000000
  5       0.000000000000
  6      -0.170489167593
  7      -0.000000000000
  8      -0.000000000000
  9      -0.345761598893
 10      -0.000000000000
 11       0.000000000000
 12      -0.465749204752
 13      -0.000000000000
 14       0.000000000000
 15      -0.242431223888
 16      -0.000000000000
 17      -0.000000000000
 18      -0.000000000000
 19       0.000000000000
 20      -0.000000000000
 21      -0.000000000000
 22       0.000000000000
 23       0.000000000000
 24      -0.000000000000
 25       0.000000000000
 26       0.000000000000
 27      -0.000000000000
 28      -0.000000000000
 29       0.000000000000
 30      -0.000000000000
 31      -0.000000000000
 32      -0.000000000000
 33      -0.000000000000
 34      -0.000065941812
 35       0.000000000000
 36      -0.000000000000
 37      -0.000000000000
 38       0.000255391541
 39      -0.000000000000
 40       0.000000000000
 41      -0.000386191476
 42       0.000000000000
 43       0.000000000000
 44      -0.000000000000
 45       0.001495713154
 46      -0.000000000000
 47      -0.000000000000
 48       0.000000000000
 49      -0.000000000000
 50      -0.000000000000
 51      -0.000000000000
 52       0.000000000000
 53       0.000000000000
 54      -0.000000000000
 55       0.000000000000
 Sym=     1a
 Ene= 3.03163307043661E-02
 Spin= Alpha
 Occup= 0.000000
  1       0.000000000000
  2       0.000000000000
  3      -0.000000000000
  4      -0.000000000000
  5      -0.000000000000
  6       0.000000000000
  7      -0.113375039840
  8      -0.000000000000
  9      -0.000000000000
 10      -0.252528652685
 11       0.000000000000
 12       0.000000000000
 13      -0.268813680540
 14       0.000000000000
 15      -0.000000000000
 16      -0.600603357513
 17      -0.000000000000
 18       0.000000000000
 19       0.000000000000
 20      -0.000000000000
 21      -0.000000000000
 22       0.000000000000
 23       0.000000000000
 24       0.000000000000
 25       0.000000000000
 26       0.000000000000
 27       0.000000000000
 28      -0.000000000000
 29      -0.000000000000
 30      -0.000000000000
 31      -0.000000000000
 32      -0.000000000000
 33       0.000000000000
 34      -0.000000000000
 35      -0.000359232781
 36       0.000000000000
 37       0.000000000000
 38       0.000000000000
 39       0.000463767526
 40       0.000000000000
 41       0.000000000000
 42      -0.000692166852
 43       0.000000000000
 44       0.000000000000
 45       0.000000000000
 46       0.000893583564
 47       0.000000000000
 48      -0.000000000000
 49      -0.000000000000
 50       0.000000000000
 51      -0.000000000000
 52       0.000000000000
 53       0.000000000000
 54      -0.000000000000
 55       0.000000000000
 Sym=     1a
 Ene= 3.13303833340811E-01
 Spin= Alpha
 Occup= 0.000000
  1       0.075415360910
  2      -0.086607671146
  3       0.210590507109
  4      -1.988626056761
  5       2.011533278430
  6       0.000000000000
  7      -0.000000000000
  8       0.000000000000
  9       0.000000000000
 10      -0.000000000000
 11      -0.000000000000
 12      -0.000000000000
 13      -0.000000000000
 14      -0.000000000000
 15       0.000000000000
 16      -0.000000000000
 17       0.000000000000
 18      -0.001671997756
 19      -0.000000000000
 20      -0.000000000000
 21      -0.002895985064
 22       0.000000000000
 23       0.001663655057
 24      -0.000000000000
 25       0.000000000000
 26       0.002881535085
 27       0.000000000000
 28      -0.012357757897
 29       0.000000000000
 30      -0.000000000000
 31      -0.021404264546
 32       0.000000000000
 33       0.000000000000
 34       0.000000000000
 35       0.000000000000
 36       0.000000000000
 37       0.000000000000
 38      -0.000000000000
 39       0.000000000000
 40       0.000000000000
 41      -0.000000000000
 42      -0.000000000000
 43      -0.000000000000
 44      -0.000000000000
 45       0.000000000000
 46      -0.000000000000
 47       0.000013690141
 48       0.000000000000
 49       0.000000000000
 50       0.000020408058
 51      -0.000000000000
 52      -0.000000000000
 53      -0.000000000000
 54      -0.000026997323
 55       0.000000000000
 Sym=     1a
 Ene= 3.19654238372374E-01
 Spin= Alpha
 Occup= 0.000000
  1      -0.000000000000
  2      -0.000000000000
  3      -0.000000000000
  4       0.000000000000
  5      -0.000000000000
  6      -0.000000000000
  7      -0.000000000000
  8      -0.123988400250
  9      -0.000000000000
 10      -0.000000000000
 11      -0.079420353832
 12       0.000000000000
 13      -0.000000000000
 14      -0.864111909406
 15       0.000000000000
 16       0.000000000000
 17       1.355046410463
 18       0.000000000000
 19       0.000000000000
 20      -0.000000000000
 21      -0.000000000000
 22      -0.000000000000
 23      -0.000000000000
 24      -0.000000000000
 25       0.000000000000
 26       0.000000000000
 27       0.000000000000
 28      -0.000000000000
 29       0.000000000000
 30       0.000000000000
 31       0.000000000000
 32       0.000000000000
 33       0.000374574247
 34       0.000000000000
 35      -0.000000000000
 36       0.000483573274
 37       0.000000000000
 38      -0.000000000000
 39      -0.000000000000
 40      -0.000753913899
 41      -0.000000000000
 42       0.000000000000
 43      -0.000973298658
 44      -0.000000000000
 45       0.000000000000
 46       0.000000000000
 47      -0.000000000000
 48       0.000000000000
 49       0.000000000000
 50       0.000000000000
 51       0.000000000000
 52      -0.000000000000
 53      -0.000000000000
 54       0.000000000000
 55       0.000000000000
 Sym=     1a
 Ene= 3.19654238372380E-01
 Spin= Alpha
 Occup= 0.000000
  1      -0.000000000000
  2       0.000000000000
  3       0.000000000000
  4      -0.000000000000
  5       0.000000000000
  6      -0.123988400250
  7      -0.000000000000
  8       0.000000000000
  9      -0.079420353832
 10       0.000000000000
 11      -0.000000000000
 12      -0.864111909406
 13      -0.000000000000
 14      -0.000000000000
 15       1.355046410463
 16      -0.000000000000
 17       0.000000000000
 18       0.000000000000
 19      -0.000000000000
 20      -0.000000000000
 21      -0.000000000000
 22      -0.000000000000
 23       0.000000000000
 24       0.000000000000
 25       0.000000000000
 26       0.000000000000
 27      -0.000000000000
 28      -0.000000000000
 29      -0.000000000000
 30      -0.000000000000
 31      -0.000000000000
 32      -0.000000000000
 33       0.000000000000
 34       0.000152919296
 35      -0.000000000000
 36       0.000000000000
 37       0.000000000000
 38      -0.000592253887
 39      -0.000000000000
 40       0.000000000000
 41      -0.000307784060
 42      -0.000000000000
 43      -0.000000000000
 44      -0.000000000000
 45       0.001192042540
 46       0.000000000000
 47      -0.000000000000
 48      -0.000000000000
 49       0.000000000000
 50       0.000000000000
 51       0.000000000000
 52      -0.000000000000
 53      -0.000000000000
 54      -0.000000000000
 55       0.000000000000
 Sym=     1a
 Ene= 3.75212294287574E-01
 Spin= Alpha
 Occup= 0.000000
  1       0.000000000000
  2       0.000000000000
  3      -0.000000000000
  4      -0.000000000000
  5      -0.000000000000
  6      -0.000000000000
  7      -0.153760300865
  8       0.000000000000
  9       0.000000000000
 10      -0.117233925373
 11      -0.000000000000
 12      -0.000000000000
 13      -1.057448092809
 14      -0.000000000000
 15      -0.000000000000
 16       1.260953875656
 17       0.000000000000
 18      -0.000000000000
 19      -0.000000000000
 20       0.000000000000
 21       0.000000000000
 22      -0.000000000000
 23      -0.000000000000
 24       0.000000000000
 25      -0.000000000000
 26      -0.000000000000
 27      -0.000000000000
 28      -0.000000000000
 29      -0.000000000000
 30       0.000000000000
 31       0.000000000000
 32       0.000000000000
 33       0.000000000000
 34       0.000000000000
 35       0.000324574429
 36       0.000000000000
 37       0.000000000000
 38       0.000000000000
 39      -0.000419023786
 40      -0.000000000000
 41       0.000000000000
 42      -0.001054703235
 43       0.000000000000
 44       0.000000000000
 45      -0.000000000000
 46       0.001361616022
 47      -0.000000000000
 48       0.000000000000
 49       0.000000000000
 50       0.000000000000
 51       0.000000000000
 52      -0.000000000000
 53      -0.000000000000
 54       0.000000000000
 55       0.000000000000
 Sym=     1a
 Ene= 6.06383592812831E-01
 Spin= Alpha
 Occup= 0.000000
  1       0.000000000000
  2       0.000000000000
  3       0.000000000000
  4      -0.000000000000
  5       0.000000000000
  6      -0.000000000000
  7       0.000000000000
  8      -0.000000000000
  9       0.000000000000
 10      -0.000000000000
 11       0.000000000000
 12      -0.000000000000
 13       0.000000000000
 14       0.000000000000
 15      -0.000000000000
 16      -0.000000000000
 17      -0.000000000000
 18      -0.000000000000
 19       0.056855799976
 20       0.000000000000
 21       0.000000000000
 22       0.000000000000
 23      -0.000000000000
 24      -0.116957276432
 25      -0.000000000000
 26      -0.000000000000
 27       0.000000000000
 28       0.000000000000
 29       1.060682840788
 30       0.000000000000
 31      -0.000000000000
 32      -0.000000000000
 33       0.000000000000
 34       0.000000000000
 35       0.000000000000
 36       0.000000000000
 37       0.000000000000
 38      -0.000000000000
 39       0.000000000000
 40      -0.000000000000
 41       0.000000000000
 42      -0.000000000000
 43      -0.000000000000
 44       0.000000000000
 45      -0.000000000000
 46       0.000000000000
 47      -0.000000000000
 48      -0.000351057327
 49      -0.000000000000
 50       0.000000000000
 51      -0.000000000000
 52       0.000928810384
 53      -0.000000000000
 54      -0.000000000000
 55       0.000000000000
 Sym=     1a
 Ene= 6.06383592812880E-01
 Spin= Alpha
 Occup= 0.000000
  1       0.000000000000
  2      -0.000000000000
  3       0.000000000000
  4      -0.000000000000
  5       0.000000000000
  6       0.000000000000
  7      -0.000000000000
  8       0.000000000000
  9      -0.000000000000
 10       0.000000000000
 11      -0.000000000000
 12       0.000000000000
 13      -0.000000000000
 14      -0.000000000000
 15      -0.000000000000
 16       0.000000000000
 17       0.000000000000
 18      -0.049238567132
 19       0.000000000000
 20      -0.000000000000
 21       0.028427899988
 22      -0.000000000000
 23       0.101287972548
 24       0.000000000000
 25       0.000000000000
 26      -0.058478638216
 27      -0.000000000000
 28      -0.918578285480
 29      -0.000000000000
 30       0.000000000000
 31       0.530341420395
 32      -0.000000000000
 33      -0.000000000000
 34       0.000000000000
 35      -0.000000000000
 36       0.000000000000
 37       0.000000000000
 38       0.000000000000
 39       0.000000000000
 40       0.000000000000
 41       0.000000000000
 42      -0.000000000000
 43      -0.000000000000
 44       0.000000000000
 45       0.000000000000
 46      -0.000000000000
 47       0.000555070372
 48      -0.000000000000
 49      -0.000000000000
 50       0.000496470033
 51       0.000000000000
 52      -0.000000000000
 53       0.000000000000
 54       0.000656768121
 55       0.000000000000
 Sym=     1a
 Ene= 6.17048962567302E-01
 Spin= Alpha
 Occup= 0.000000
  1      -0.000000000000
  2      -0.000000000000
  3       0.000000000000
  4       0.000000000000
  5       0.000000000000
  6       0.000000000000
  7       0.000000000000
  8       0.000000000000
  9       0.000000000000
 10      -0.000000000000
 11      -0.000000000000
 12      -0.000000000000
 13      -0.000000000000
 14      -0.000000000000
 15      -0.000000000000
 16       0.000000000000
 17       0.000000000000
 18       0.000000000000
 19       0.000000000000
 20      -0.000000000000
 21      -0.000000000000
 22       0.055813763467
 23      -0.000000000000
 24      -0.000000000000
 25      -0.000000000000
 26      -0.000000000000
 27      -0.134310929951
 28       0.000000000000
 29       0.000000000000
 30      -0.000000000000
 31      -0.000000000000
 32       1.071033954894
 33      -0.000000000000
 34       0.000000000000
 35       0.000000000000
 36       0.000000000000
 37       0.000000000000
 38       0.000000000000
 39      -0.000000000000
 40       0.000000000000
 41       0.000000000000
 42      -0.000000000000
 43       0.000000000000
 44      -0.000000000000
 45      -0.000000000000
 46       0.000000000000
 47      -0.000000000000
 48      -0.000000000000
 49       0.000000000000
 50       0.000000000000
 51      -0.000488796523
 52      -0.000000000000
 53      -0.000000000000
 54       0.000000000000
 55       0.001293234041
 Sym=     1a
 Ene= 6.17048962567310E-01
 Spin= Alpha
 Occup= 0.000000
  1       0.000000000000
  2       0.000000000000
  3       0.000000000000
  4       0.000000000000
  5       0.000000000000
  6      -0.000000000000
  7      -0.000000000000
  8       0.000000000000
  9      -0.000000000000
 10       0.000000000000
 11      -0.000000000000
 12       0.000000000000
 13      -0.000000000000
 14      -0.000000000000
 15      -0.000000000000
 16       0.000000000000
 17       0.000000000000
 18       0.000000000000
 19       0.000000000000
 20       0.055813763467
 21      -0.000000000000
 22      -0.000000000000
 23       0.000000000000
 24      -0.000000000000
 25      -0.134310929951
 26       0.000000000000
 27       0.000000000000
 28      -0.000000000000
 29       0.000000000000
 30       1.071033954894
 31       0.000000000000
 32      -0.000000000000
 33      -0.000000000000
 34       0.000000000000
 35       0.000000000000
 36       0.000000000000
 37       0.000000000000
 38      -0.000000000000
 39       0.000000000000
 40       0.000000000000
 41      -0.000000000000
 42      -0.000000000000
 43       0.000000000000
 44       0.000000000000
 45       0.000000000000
 46      -0.000000000000
 47       0.000000000000
 48       0.000000000000
 49      -0.001036894007
 50       0.000000000000
 51      -0.000000000000
 52       0.000000000000
 53       0.000914454560
 54       0.000000000000
 55       0.000000000000
 Sym=     1a
 Ene= 6.21743359695780E-01
 Spin= Alpha
 Occup= 0.000000
  1      -0.003502168628
  2       0.010484326486
  3      -0.001020677509
  4       0.075012634118
  5      -0.041276510625
  6      -0.000000000000
  7       0.000000000000
  8       0.000000000000
  9       0.000000000000
 10      -0.000000000000
 11      -0.000000000000
 12      -0.000000000000
 13      -0.000000000000
 14      -0.000000000000
 15       0.000000000000
 16      -0.000000000000
 17       0.000000000000
 18      -0.027616712419
 19      -0.000000000000
 20      -0.000000000000
 21      -0.047833549047
 22       0.000000000000
 23       0.070565979901
 24       0.000000000000
 25      -0.000000000000
 26       0.122223862473
 27       0.000000000000
 28      -0.537097053564
 29       0.000000000000
 30       0.000000000000
 31      -0.930279385367
 32       0.000000000000
 33       0.000000000000
 34      -0.000000000000
 35      -0.000000000000
 36      -0.000000000000
 37       0.000000000000
 38      -0.000000000000
 39      -0.000000000000
 40       0.000000000000
 41       0.000000000000
 42       0.000000000000
 43      -0.000000000000
 44       0.000000000000
 45       0.000000000000
 46       0.000000000000
 47       0.000563607421
 48      -0.000000000000
 49       0.000000000000
 50       0.000840176337
 51      -0.000000000000
 52      -0.000000000000
 53       0.000000000000
 54      -0.001111448823
 55       0.000000000000
 Sym=     1a
 Ene= 1.48446470652147E+00
 Spin= Alpha
 Occup= 0.000000
  1       0.000000000000
  2       0.000000000000
  3       0.000000000000
  4      -0.000000000000
  5       0.000000000000
  6      -0.000000000000
  7      -0.000000000000
  8       0.183842415841
  9       0.000000000000
 10      -0.000000000000
 11       1.294125218099
 12       0.000000000000
 13       0.000000000000
 14      -1.904806905319
 15      -0.000000000000
 16       0.000000000000
 17       0.799821917200
 18       0.000000000000
 19      -0.000000000000
 20      -0.000000000000
 21      -0.000000000000
 22      -0.000000000000
 23      -0.000000000000
 24       0.000000000000
 25       0.000000000000
 26       0.000000000000
 27       0.000000000000
 28      -0.000000000000
 29      -0.000000000000
 30       0.000000000000
 31      -0.000000000000
 32       0.000000000000
 33      -0.002498586016
 34       0.000000000000
 35      -0.000000000000
 36      -0.003225660676
 37       0.000000000000
 38      -0.000000000000
 39      -0.000000000000
 40       0.012094359359
 41       0.000000000000
 42       0.000000000000
 43       0.015613750794
 44      -0.000000000000
 45       0.000000000000
 46       0.000000000000
 47       0.000000000000
 48       0.000000000000
 49       0.000000000000
 50      -0.000000000000
 51       0.000000000000
 52      -0.000000000000
 53      -0.000000000000
 54       0.000000000000
 55       0.000000000000
 Sym=     1a
 Ene= 1.48446470652147E+00
 Spin= Alpha
 Occup= 0.000000
  1      -0.000000000000
  2       0.000000000000
  3       0.000000000000
  4      -0.000000000000
  5       0.000000000000
  6      -0.183842415841
  7       0.000000000000
  8      -0.000000000000
  9      -1.294125218099
 10      -0.000000000000
 11       0.000000000000
 12       1.904806905319
 13       0.000000000000
 14      -0.000000000000
 15      -0.799821917200
 16      -0.000000000000
 17       0.000000000000
 18      -0.000000000000
 19       0.000000000000
 20       0.000000000000
 21      -0.000000000000
 22       0.000000000000
 23      -0.000000000000
 24      -0.000000000000
 25      -0.000000000000
 26      -0.000000000000
 27      -0.000000000000
 28       0.000000000000
 29      -0.000000000000
 30       0.000000000000
 31       0.000000000000
 32      -0.000000000000
 33      -0.000000000000
 34       0.001020043470
 35       0.000000000000
 36       0.000000000000
 37       0.000000000000
 38      -0.003950611370
 39       0.000000000000
 40       0.000000000000
 41      -0.004937501533
 42      -0.000000000000
 43       0.000000000000
 44       0.000000000000
 45       0.019122861208
 46      -0.000000000000
 47      -0.000000000000
 48      -0.000000000000
 49       0.000000000000
 50       0.000000000000
 51       0.000000000000
 52       0.000000000000
 53      -0.000000000000
 54      -0.000000000000
 55       0.000000000000
 Sym=     1a
 Ene= 1.52348921063706E+00
 Spin= Alpha
 Occup= 0.000000
  1       0.000000000000
  2       0.000000000000
  3       0.000000000000
  4      -0.000000000000
  5       0.000000000000
  6       0.000000000000
  7      -0.186742558229
  8      -0.000000000000
  9      -0.000000000000
 10      -1.327837142140
 11       0.000000000000
 12       0.000000000000
 13       1.849771564105
 14      -0.000000000000
 15      -0.000000000000
 16      -0.765378309525
 17       0.000000000000
 18       0.000000000000
 19       0.000000000000
 20      -0.000000000000
 21      -0.000000000000
 22      -0.000000000000
 23       0.000000000000
 24      -0.000000000000
 25       0.000000000000
 26       0.000000000000
 27      -0.000000000000
 28       0.000000000000
 29       0.000000000000
 30      -0.000000000000
 31      -0.000000000000
 32      -0.000000000000
 33      -0.000000000000
 34       0.000000000000
 35       0.003313436049
 36       0.000000000000
 37       0.000000000000
 38      -0.000000000000
 39      -0.004277627545
 40       0.000000000000
 41      -0.000000000000
 42      -0.016885999268
 43      -0.000000000000
 44      -0.000000000000
 45       0.000000000000
 46       0.021799731316
 47       0.000000000000
 48      -0.000000000000
 49       0.000000000000
 50      -0.000000000000
 51       0.000000000000
 52       0.000000000000
 53       0.000000000000
 54       0.000000000000
 55       0.000000000000
 Sym=     1a
 Ene= 1.88522653054606E+00
 Spin= Alpha
 Occup= 0.000000
  1       0.000000000000
  2       0.000000000000
  3       0.000000000000
  4      -0.000000000000
  5       0.000000000000
  6      -0.000000000000
  7       0.005856563042
  8      -0.000000000000
  9       0.000000000000
 10       0.032715604518
 11       0.000000000000
 12       0.000000000000
 13      -0.043691357392
 14      -0.000000000000
 15       0.000000000000
 16       0.017906535813
 17       0.000000000000
 18       0.000000000000
 19      -0.000000000000
 20       0.000000000000
 21       0.000000000000
 22       0.000000000000
 23       0.000000000000
 24      -0.000000000000
 25       0.000000000000
 26      -0.000000000000
 27      -0.000000000000
 28       0.000000000000
 29       0.000000000000
 30       0.000000000000
 31      -0.000000000000
 32       0.000000000000
 33      -0.000000000000
 34      -0.000000000000
 35       0.070418820741
 36       0.000000000000
 37      -0.000000000000
 38      -0.000000000000
 39      -0.090910306664
 40      -0.000000000000
 41       0.000000000000
 42      -0.647201943742
 43       0.000000000000
 44      -0.000000000000
 45      -0.000000000000
 46       0.835534116582
 47      -0.000000000000
 48      -0.000000000000
 49       0.000000000000
 50      -0.000000000000
 51      -0.000000000000
 52      -0.000000000000
 53      -0.000000000000
 54       0.000000000000
 55       0.000000000000
 Sym=     1a
 Ene= 1.88694835173959E+00
 Spin= Alpha
 Occup= 0.000000
  1       0.000000000000
  2       0.000000000000
  3       0.000000000000
  4      -0.000000000000
  5       0.000000000000
  6       0.004370331536
  7      -0.000000000000
  8      -0.000000000000
  9       0.022820569363
 10      -0.000000000000
 11       0.000000000000
 12      -0.031791839167
 13       0.000000000000
 14      -0.000000000000
 15       0.013183451588
 16      -0.000000000000
 17       0.000000000000
 18      -0.000000000000
 19       0.000000000000
 20      -0.000000000000
 21       0.000000000000
 22       0.000000000000
 23      -0.000000000000
 24       0.000000000000
 25      -0.000000000000
 26       0.000000000000
 27      -0.000000000000
 28      -0.000000000000
 29      -0.000000000000
 30       0.000000000000
 31      -0.000000000000
 32      -0.000000000000
 33       0.000000000000
 34       0.028710806916
 35       0.000000000000
 36      -0.000000000000
 37       0.000000000000
 38      -0.111196477039
 39      -0.000000000000
 40       0.000000000000
 41      -0.264240637500
 42      -0.000000000000
 43       0.000000000000
 44       0.000000000000
 45       1.023399588418
 46      -0.000000000000
 47      -0.000000000000
 48      -0.000000000000
 49      -0.000000000000
 50       0.000000000000
 51      -0.000000000000
 52       0.000000000000
 53       0.000000000000
 54      -0.000000000000
 55       0.000000000000
 Sym=     1a
 Ene= 1.88694835173959E+00
 Spin= Alpha
 Occup= 0.000000
  1       0.000000000000
  2       0.000000000000
  3       0.000000000000
  4      -0.000000000000
  5       0.000000000000
  6       0.000000000000
  7       0.000000000000
  8      -0.004370331536
  9      -0.000000000000
 10      -0.000000000000
 11      -0.022820569363
 12       0.000000000000
 13      -0.000000000000
 14       0.031791839167
 15      -0.000000000000
 16      -0.000000000000
 17      -0.013183451588
 18       0.000000000000
 19      -0.000000000000
 20      -0.000000000000
 21      -0.000000000000
 22      -0.000000000000
 23      -0.000000000000
 24       0.000000000000
 25       0.000000000000
 26       0.000000000000
 27       0.000000000000
 28       0.000000000000
 29      -0.000000000000