[Molden Format]
[Title]
 Molden file created by orca_2mkl for BaseName=mol

[Atoms] AU
Cu   1  29          0.0000000000         0.0000000000         0.0000000000 
[GTO]
  1 0
s  11 1.0 
  5056467.8898000000         0.7392094092
   759457.8383500000         1.3794873799
   173524.8849700000         2.3835986831
    49327.2599880000         3.8945463234
    16144.1499300000         6.0761093997
     5844.5964680000         9.0537254063
     2284.6812739000        12.7143796071
      948.8823251400        16.2200120949
      413.6621545500        17.4297937330
      187.3894205900        13.5425002546
       86.8727716480         5.6611399586
s   4 1.0 
     1744.0598287000         1.5174582556
      540.9329551300         6.1597546098
      207.9973622400        13.5340757848
       90.4757930360        12.9923638088
s   1 1.0 
       38.8696876990        11.0947719712
s   1 1.0 
       18.9748291470         6.4795298932
s   1 1.0 
        9.0953644635         3.7327179235
s   1 1.0 
        3.8330020174         1.9523801257
s   1 1.0 
        1.8198891499         1.1167187138
s   1 1.0 
        0.7906809839         0.5976006521
s   1 1.0 
        0.1491414211         0.1710443764
s   1 1.0 
        0.0724480906         0.0995245678
s   1 1.0 
        0.0309599254         0.0526029404
p   9 1.0 
     9720.4614555000        24.5661779756
     2302.7557452000        35.7034677976
      747.4849831400        48.8055898615
      285.0013262300        60.2566631935
      120.1512160900        64.0993550435
       54.1452611560        53.7774747446
       25.4060335630        31.3606020249
       12.2243314650         9.8927608957
        5.7638720668         1.0413596257
p   5 1.0 
       83.2108372170        -1.7213998471
       29.6947791290        -2.3454798756
        5.8248516206         3.0176032644
        2.6746181180         2.3447694473
        1.1841836775         0.6785156991
p   1 1.0 
        0.4804358354         0.5701437003
p   1 1.0 
        0.1870000000         0.1752839277
p   1 1.0 
        0.0762000000         0.0570668370
p   1 1.0 
        0.0310000000         0.0185413864
d   6 1.0 
      249.5402508000        84.2529887624
       74.6839145340        85.8159258716
       28.3927171160        70.1660407637
       11.9559684300        45.0249335989
        5.3210744624        20.8461366847
        2.3661189459         6.4759343139
d   1 1.0 
        1.0131863994         2.9169329642
d   1 1.0 
        0.4071003594         0.5914903773
d   1 1.0 
        0.1474254103         0.0999934810
d   1 1.0 
        0.0710000000         0.0278401899
f   1 1.0 
        6.9620000000       448.9020842703
f   1 1.0 
        2.2330000000        34.7535926279
f   1 1.0 
        0.7040000000         2.5884427404
g   1 1.0 
        3.2450000000       167.6138399436

[5D]
[9G]
[MO]
 Sym=     1a
 Ene= -3.28794678428803E+02
 Spin= Alpha
 Occup= 1.000000
  1       0.961381426002
  2      -0.000111864697
  3       0.059254569116
  4      -0.002220850538
  5       0.001873474299
  6      -0.000839172660
  7       0.000377113937
  8      -0.000135690841
  9       0.000048040808
 10      -0.000038925149
 11       0.000011693235
 12      -0.000000000000
 13      -0.000000000000
 14       0.000000000000
 15       0.000000000000
 16       0.000000000000
 17      -0.000000000000
 18      -0.000000000000
 19      -0.000000000000
 20       0.000000000000
 21       0.000000000000
 22      -0.000000000000
 23      -0.000000000000
 24      -0.000000000000
 25       0.000000000000
 26       0.000000000000
 27       0.000000000000
 28      -0.000000000000
 29      -0.000000000000
 30      -0.000000000000
 31      -0.000000000000
 32       0.000000000000
 33       0.000000000000
 34      -0.000000000000
 35       0.000000000000
 36       0.000000000000
 37      -0.000000000000
 38      -0.000000000000
 39      -0.000000000000
 40      -0.000000000000
 41       0.000000000000
 42       0.000000000000
 43       0.000000000000
 44       0.000000000000
 45       0.000000000000
 46       0.000000000000
 47      -0.000000000000
 48      -0.000000000000
 49      -0.000000000000
 50      -0.000000000000
 51      -0.000000000000
 52       0.000000000000
 53       0.000000000000
 54       0.000000000000
 55      -0.000000000000
 56       0.000000000000
 57       0.000000000000
 58       0.000000000000
 59      -0.000000000000
 60       0.000000000000
 61       0.000000000000
 62       0.000000000000
 63      -0.000000000000
 64      -0.000000000000
 65      -0.000000000000
 66       0.000000000000
 67      -0.000000000000
 68      -0.000000000000
 69      -0.000000000000
 70      -0.000000000000
 71       0.000000000000
 72       0.000000000000
 73      -0.000000000000
 74       0.000000000000
 75      -0.000000000000
 76       0.000000000000
 77      -0.000000000000
 78      -0.000000000000
 79      -0.000000000000
 80      -0.000000000000
 81       0.000000000000
 82      -0.000000000000
 83      -0.000000000000
 84       0.000000000000
 Sym=     1a
 Ene= -4.08191898867486E+01
 Spin= Alpha
 Occup= 1.000000
  1      -0.298849085251
  2      -0.180627507969
  3       0.070732520036
  4       0.544205948308
  5       0.478083877143
  6       0.073058747707
  7      -0.004118558672
  8       0.002273147038
  9      -0.000499899597
 10       0.000410122075
 11      -0.000123139363
 12      -0.000000000000
 13      -0.000000000000
 14       0.000000000000
 15      -0.000000000000
 16       0.000000000000
 17      -0.000000000000
 18       0.000000000000
 19      -0.000000000000
 20       0.000000000000
 21      -0.000000000000
 22       0.000000000000
 23      -0.000000000000
 24       0.000000000000
 25       0.000000000000
 26      -0.000000000000
 27      -0.000000000000
 28      -0.000000000000
 29       0.000000000000
 30      -0.000000000000
 31       0.000000000000
 32       0.000000000000
 33       0.000000000000
 34       0.000000000000
 35      -0.000000000000
 36      -0.000000000000
 37      -0.000000000000
 38      -0.000000000000
 39       0.000000000000
 40      -0.000000000000
 41      -0.000000000000
 42       0.000000000000
 43       0.000000000000
 44      -0.000000000000
 45       0.000000000000
 46       0.000000000000
 47      -0.000000000000
 48      -0.000000000000
 49       0.000000000000
 50       0.000000000000
 51       0.000000000000
 52      -0.000000000000
 53       0.000000000000
 54       0.000000000000
 55       0.000000000000
 56      -0.000000000000
 57      -0.000000000000
 58      -0.000000000000
 59       0.000000000000
 60      -0.000000000000
 61      -0.000000000000
 62      -0.000000000000
 63       0.000000000000
 64       0.000000000000
 65       0.000000000000
 66      -0.000000000000
 67       0.000000000000
 68       0.000000000000
 69      -0.000000000000
 70      -0.000000000000
 71      -0.000000000000
 72      -0.000000000000
 73       0.000000000000
 74       0.000000000000
 75      -0.000000000000
 76      -0.000000000000
 77      -0.000000000000
 78       0.000000000000
 79      -0.000000000000
 80      -0.000000000000
 81      -0.000000000000
 82      -0.000000000000
 83       0.000000000000
 84       0.000000000000
 Sym=     1a
 Ene= -3.56172529674751E+01
 Spin= Alpha
 Occup= 1.000000
  1      -0.000000000000
  2       0.000000000000
  3       0.000000000000
  4      -0.000000000000
  5      -0.000000000000
  6       0.000000000000
  7       0.000000000000
  8      -0.000000000000
  9       0.000000000000
 10      -0.000000000000
 11       0.000000000000
 12       0.000000000000
 13       0.000000000000
 14      -0.998179120251
 15      -0.000000000000
 16      -0.000000000000
 17      -0.005055606587
 18       0.000000000000
 19       0.000000000000
 20       0.000238301317
 21       0.000000000000
 22       0.000000000000
 23      -0.000155106489
 24       0.000000000000
 25       0.000000000000
 26       0.000052635217
 27      -0.000000000000
 28      -0.000000000000
 29      -0.000014811223
 30       0.000000000000
 31      -0.000000000000
 32      -0.000000000000
 33      -0.000000000000
 34      -0.000000000000
 35       0.000000000000
 36      -0.000000000000
 37      -0.000000000000
 38       0.000000000000
 39      -0.000000000000
 40       0.000000000000
 41      -0.000000000000
 42       0.000000000000
 43      -0.000000000000
 44      -0.000000000000
 45       0.000000000000
 46       0.000000000000
 47       0.000000000000
 48       0.000000000000
 49       0.000000000000
 50      -0.000000000000
 51       0.000000000000
 52       0.000000000000
 53       0.000000000000
 54       0.000000000000
 55       0.000000000001
 56      -0.000000000000
 57      -0.000000000000
 58      -0.000000000000
 59       0.000000000000
 60       0.000000000000
 61       0.000000000000
 62       0.000000000000
 63      -0.000000000000
 64       0.000000000000
 65      -0.000000000000
 66      -0.000000000000
 67       0.000000000000
 68      -0.000000000000
 69      -0.000000000000
 70       0.000000000000
 71      -0.000000000000
 72       0.000000000000
 73       0.000000000000
 74       0.000000000000
 75       0.000000000000
 76      -0.000000000000
 77      -0.000000000000
 78      -0.000000000000
 79       0.000000000000
 80      -0.000000000000
 81       0.000000000000
 82      -0.000000000000
 83       0.000000000000
 84       0.000000000000
 Sym=     1a
 Ene= -3.56172529674749E+01
 Spin= Alpha
 Occup= 1.000000
  1       0.000000000000
  2       0.000000000000
  3      -0.000000000000
  4       0.000000000000
  5      -0.000000000000
  6      -0.000000000000
  7       0.000000000000
  8      -0.000000000000
  9      -0.000000000000
 10       0.000000000000
 11      -0.000000000000
 12       0.000000000000
 13      -0.998179120251
 14       0.000000000000
 15      -0.000000000000
 16      -0.005055606587
 17      -0.000000000000
 18       0.000000000000
 19       0.000238301317
 20       0.000000000000
 21       0.000000000000
 22      -0.000155106489
 23      -0.000000000000
 24       0.000000000000
 25       0.000052635217
 26       0.000000000000
 27      -0.000000000000
 28      -0.000014811223
 29      -0.000000000000
 30       0.000000000000
 31      -0.000000000000
 32       0.000000000000
 33       0.000000000000
 34       0.000000000000
 35      -0.000000000000
 36      -0.000000000000
 37      -0.000000000000
 38       0.000000000000
 39       0.000000000000
 40      -0.000000000000
 41       0.000000000000
 42       0.000000000000
 43      -0.000000000000
 44      -0.000000000000
 45       0.000000000000
 46       0.000000000000
 47      -0.000000000000
 48      -0.000000000000
 49       0.000000000000
 50      -0.000000000000
 51       0.000000000000
 52      -0.000000000000
 53       0.000000000000
 54      -0.000000000000
 55      -0.000000000000
 56      -0.000000000000
 57      -0.000000000001
 58       0.000000000000
 59       0.000000000000
 60       0.000000000000
 61       0.000000000001
 62       0.000000000000
 63       0.000000000000
 64      -0.000000000000
 65      -0.000000000000
 66      -0.000000000000
 67      -0.000000000000
 68       0.000000000000
 69       0.000000000000
 70      -0.000000000000
 71       0.000000000000
 72       0.000000000000
 73       0.000000000000
 74       0.000000000000
 75      -0.000000000000
 76       0.000000000000
 77       0.000000000000
 78      -0.000000000000
 79       0.000000000000
 80       0.000000000000
 81      -0.000000000000
 82      -0.000000000000
 83       0.000000000000
 84       0.000000000000
 Sym=     1a
 Ene= -3.56172529674748E+01
 Spin= Alpha
 Occup= 1.000000
  1      -0.000000000000
  2       0.000000000000
  3       0.000000000000
  4      -0.000000000000
  5       0.000000000000
  6      -0.000000000000
  7       0.000000000000
  8      -0.000000000000
  9      -0.000000000000
 10       0.000000000000
 11       0.000000000000
 12       0.998179120251
 13      -0.000000000000
 14      -0.000000000000
 15       0.005055606587
 16       0.000000000000
 17       0.000000000000
 18      -0.000238301317
 19      -0.000000000000
 20      -0.000000000000
 21       0.000155106489
 22      -0.000000000000
 23       0.000000000000
 24      -0.000052635217
 25       0.000000000000
 26      -0.000000000000
 27       0.000014811223
 28       0.000000000000
 29       0.000000000000
 30       0.000000000000
 31      -0.000000000000
 32      -0.000000000000
 33      -0.000000000000
 34       0.000000000000
 35       0.000000000000
 36      -0.000000000000
 37      -0.000000000000
 38       0.000000000000
 39      -0.000000000000
 40      -0.000000000000
 41       0.000000000000
 42      -0.000000000000
 43       0.000000000000
 44       0.000000000000
 45      -0.000000000000
 46      -0.000000000000
 47       0.000000000000
 48      -0.000000000000
 49      -0.000000000000
 50      -0.000000000000
 51       0.000000000000
 52       0.000000000000
 53       0.000000000000
 54      -0.000000000000
 55      -0.000000000000
 56       0.000000000001
 57      -0.000000000000
 58       0.000000000000
 59      -0.000000000000
 60       0.000000000001
 61       0.000000000000
 62       0.000000000000
 63       0.000000000000
 64       0.000000000000
 65      -0.000000000000
 66       0.000000000000
 67       0.000000000000
 68      -0.000000000000
 69       0.000000000000
 70      -0.000000000000
 71       0.000000000000
 72      -0.000000000000
 73      -0.000000000000
 74      -0.000000000000
 75       0.000000000000
 76       0.000000000000
 77       0.000000000000
 78       0.000000000000
 79       0.000000000000
 80       0.000000000000
 81      -0.000000000000
 82      -0.000000000000
 83       0.000000000000
 84       0.000000000000
 Sym=     1a
 Ene= -5.01229224796441E+00
 Spin= Alpha
 Occup= 1.000000
  1       0.111352710910
  2       0.080037792827
  3      -0.029211141046
  4      -0.346272566849
  5      -0.433970365380
  6       0.235400077406
  7       0.715381345368
  8       0.330386132065
  9       0.012245868651
 10      -0.006315694863
 11       0.001587986987
 12       0.000000000000
 13       0.000000000000
 14      -0.000000000000
 15       0.000000000000
 16      -0.000000000000
 17       0.000000000000
 18      -0.000000000000
 19       0.000000000000
 20      -0.000000000000
 21       0.000000000000
 22      -0.000000000000
 23       0.000000000000
 24      -0.000000000000
 25      -0.000000000000
 26       0.000000000000
 27       0.000000000000
 28       0.000000000000
 29      -0.000000000000
 30       0.000000000000
 31      -0.000000000000
 32       0.000000000000
 33       0.000000000000
 34       0.000000000000
 35       0.000000000000
 36       0.000000000000
 37       0.000000000000
 38      -0.000000000000
 39       0.000000000000
 40      -0.000000000000
 41       0.000000000000
 42      -0.000000000000
 43      -0.000000000000
 44      -0.000000000000
 45       0.000000000000
 46      -0.000000000000
 47       0.000000000000
 48       0.000000000000
 49       0.000000000000
 50       0.000000000000
 51      -0.000000000000
 52       0.000000000000
 53       0.000000000000
 54      -0.000000000000
 55       0.000000000000
 56       0.000000000000
 57       0.000000000000
 58       0.000000000000
 59      -0.000000000000
 60       0.000000000000
 61       0.000000000000
 62       0.000000000000
 63      -0.000000000000
 64       0.000000000000
 65      -0.000000000000
 66       0.000000000000
 67      -0.000000000000
 68      -0.000000000000
 69       0.000000000000
 70      -0.000000000000
 71      -0.000000000000
 72      -0.000000000000
 73      -0.000000000000
 74       0.000000000000
 75       0.000000000000
 76      -0.000000000002
 77      -0.000000000000
 78       0.000000000000
 79      -0.000000000000
 80      -0.000000000000
 81       0.000000000000
 82      -0.000000000000
 83       0.000000000002
 84       0.000000000000
 Sym=     1a
 Ene= -3.32209102914550E+00
 Spin= Alpha
 Occup= 1.000000
  1      -0.000000000000
  2       0.000000000000
  3      -0.000000000000
  4       0.000000000000
  5      -0.000000000000
  6       0.000000000000
  7       0.000000000000
  8      -0.000000000000
  9      -0.000000000000
 10       0.000000000000
 11      -0.000000000000
 12       0.000000000000
 13       0.000000000000
 14      -0.374865100067
 15      -0.000000000000
 16      -0.000000000000
 17       1.010533041896
 18      -0.000000000000
 19       0.000000000000
 20       0.094318873629
 21       0.000000000000
 22       0.000000000000
 23      -0.000292542037
 24       0.000000000000
 25       0.000000000000
 26       0.002638302765
 27      -0.000000000000
 28      -0.000000000000
 29      -0.000668365046
 30      -0.000000000000
 31       0.000000000000
 32       0.000000000000
 33       0.000000000000
 34       0.000000000000
 35      -0.000000000000
 36       0.000000000000
 37       0.000000000000
 38       0.000000000000
 39       0.000000000000
 40       0.000000000000
 41       0.000000000000
 42       0.000000000000
 43       0.000000000000
 44       0.000000000000
 45      -0.000000000000
 46      -0.000000000000
 47      -0.000000000000
 48      -0.000000000000
 49      -0.000000000000
 50       0.000000000000
 51      -0.000000000000
 52      -0.000000000000
 53       0.000000000000
 54      -0.000000000000
 55      -0.000000000005
 56      -0.000000000000
 57      -0.000000000000
 58       0.000000000000
 59       0.000000000000
 60       0.000000000000
 61       0.000000000000
 62      -0.000000000010
 63       0.000000000000
 64       0.000000000000
 65      -0.000000000000
 66      -0.000000000000
 67       0.000000000000
 68      -0.000000000000
 69       0.000000000005
 70       0.000000000000
 71      -0.000000000000
 72      -0.000000000000
 73       0.000000000000
 74      -0.000000000000
 75      -0.000000000000
 76       0.000000000000
 77      -0.000000000000
 78       0.000000000000
 79       0.000000000000
 80      -0.000000000000
 81      -0.000000000000
 82      -0.000000000000
 83       0.000000000000
 84       0.000000000000
 Sym=     1a
 Ene= -3.32209102914550E+00
 Spin= Alpha
 Occup= 1.000000
  1       0.000000000000
  2      -0.000000000000
  3      -0.000000000000
  4       0.000000000000
  5      -0.000000000000
  6      -0.000000000000
  7      -0.000000000000
  8       0.000000000000
  9      -0.000000000000
 10       0.000000000000
 11      -0.000000000000
 12      -0.374865100067
 13       0.000000000000
 14       0.000000000000
 15       1.010533041896
 16      -0.000000000000
 17      -0.000000000000
 18       0.094318873629
 19      -0.000000000000
 20       0.000000000000
 21      -0.000292542037
 22       0.000000000000
 23       0.000000000000
 24       0.002638302765
 25      -0.000000000000
 26       0.000000000000
 27      -0.000668365046
 28      -0.000000000000
 29      -0.000000000000
 30      -0.000000000000
 31      -0.000000000000
 32      -0.000000000000
 33       0.000000000000
 34      -0.000000000000
 35       0.000000000000
 36      -0.000000000000
 37      -0.000000000000
 38      -0.000000000000
 39      -0.000000000000
 40      -0.000000000000
 41      -0.000000000000
 42       0.000000000000
 43      -0.000000000000
 44       0.000000000000
 45       0.000000000000
 46       0.000000000000
 47       0.000000000000
 48       0.000000000000
 49       0.000000000000
 50      -0.000000000000
 51       0.000000000000
 52       0.000000000000
 53      -0.000000000000
 54      -0.000000000000
 55      -0.000000000000
 56       0.000000000003
 57      -0.000000000000
 58      -0.000000000000
 59       0.000000000000
 60       0.000000000004
 61      -0.000000000000
 62       0.000000000000
 63       0.000000000006
 64       0.000000000000
 65       0.000000000000
 66      -0.000000000000
 67       0.000000000008
 68       0.000000000000
 69      -0.000000000000
 70      -0.000000000003
 71      -0.000000000000
 72       0.000000000000
 73       0.000000000000
 74      -0.000000000004
 75       0.000000000000
 76      -0.000000000000
 77      -0.000000000000
 78       0.000000000000
 79       0.000000000000
 80       0.000000000000
 81      -0.000000000000
 82      -0.000000000000
 83       0.000000000000
 84       0.000000000000
 Sym=     1a
 Ene= -3.32209102914550E+00
 Spin= Alpha
 Occup= 1.000000
  1       0.000000000000
  2       0.000000000000
  3      -0.000000000000
  4       0.000000000000
  5       0.000000000000
  6       0.000000000000
  7       0.000000000000
  8      -0.000000000000
  9      -0.000000000000
 10       0.000000000000
 11      -0.000000000000
 12       0.000000000000
 13      -0.374865100067
 14       0.000000000000
 15      -0.000000000000
 16       1.010533041896
 17      -0.000000000000
 18       0.000000000000
 19       0.094318873629
 20       0.000000000000
 21       0.000000000000
 22      -0.000292542037
 23       0.000000000000
 24      -0.000000000000
 25       0.002638302765
 26       0.000000000000
 27      -0.000000000000
 28      -0.000668365046
 29      -0.000000000000
 30       0.000000000000
 31       0.000000000000
 32      -0.000000000000
 33       0.000000000000
 34      -0.000000000000
 35      -0.000000000000
 36       0.000000000000
 37      -0.000000000000
 38      -0.000000000000
 39      -0.000000000000
 40       0.000000000000
 41      -0.000000000000
 42       0.000000000000
 43      -0.000000000000
 44      -0.000000000000
 45      -0.000000000000
 46      -0.000000000000
 47       0.000000000000
 48      -0.000000000000
 49      -0.000000000000
 50      -0.000000000000
 51      -0.000000000000
 52       0.000000000000
 53       0.000000000000
 54       0.000000000000
 55       0.000000000000
 56       0.000000000000
 57       0.000000000003
 58       0.000000000000
 59       0.000000000000
 60       0.000000000000
 61      -0.000000000004
 62      -0.000000000000
 63       0.000000000000
 64       0.000000000006
 65      -0.000000000000
 66      -0.000000000000
 67      -0.000000000000
 68      -0.000000000008
 69       0.000000000000
 70      -0.000000000000
 71      -0.000000000003
 72       0.000000000000
 73      -0.000000000000
 74       0.000000000000
 75       0.000000000004
 76       0.000000000000
 77      -0.000000000000
 78      -0.000000000000
 79       0.000000000000
 80       0.000000000000
 81      -0.000000000000
 82       0.000000000000
 83      -0.000000000000
 84       0.000000000000
 Sym=     1a
 Ene= -4.88987717432809E-01
 Spin= Alpha
 Occup= 1.000000
  1       0.000000000000
  2      -0.000000000000
  3      -0.000000000000
  4       0.000000000000
  5      -0.000000000000
  6       0.000000000000
  7      -0.000000000000
  8       0.000000000000
  9      -0.000000000000
 10      -0.000000000000
 11       0.000000000000
 12       0.000000000000
 13      -0.000000000000
 14      -0.000000000000
 15      -0.000000000000
 16      -0.000000000000
 17      -0.000000000000
 18       0.000000000000
 19      -0.000000000000
 20      -0.000000000000
 21      -0.000000000000
 22       0.000000000000
 23       0.000000000000
 24       0.000000000000
 25      -0.000000000000
 26      -0.000000000000
 27      -0.000000000000
 28       0.000000000000
 29       0.000000000000
 30      -0.000000000000
 31      -0.654757756264
 32       0.000000000000
 33      -0.000000000000
 34       0.000000000000
 35      -0.000000000000
 36      -0.311982886953
 37      -0.000000000000
 38       0.000000000000
 39       0.000000000000
 40       0.000000000000
 41      -0.223774678445
 42      -0.000000000000
 43      -0.000000000000
 44      -0.000000000000
 45      -0.000000000000
 46      -0.087513729731
 47      -0.000000000000
 48      -0.000000000000
 49      -0.000000000000
 50       0.000000000000
 51      -0.004289596324
 52      -0.000000000000
 53       0.000000000000
 54       0.000000000000
 55      -0.000000000000
 56       0.000000000000
 57       0.000000000000
 58      -0.000000000000
 59      -0.000000000000
 60       0.000000000000
 61      -0.000000000000
 62      -0.000000000000
 63       0.000000000000
 64       0.000000000000
 65       0.000000000000
 66      -0.000000000000
 67      -0.000000000000
 68       0.000000000000
 69      -0.000000000000
 70       0.000000000000
 71      -0.000000000000
 72      -0.000000000000
 73      -0.000000000000
 74       0.000000000000
 75       0.000000000000
 76       0.000000000000
 77       0.000000000000
 78       0.000000000000
 79      -0.000000000000
 80      -0.000000000000
 81      -0.000000000001
 82       0.000000000000
 83      -0.000000000000
 84       0.000000000000
 Sym=     1a
 Ene= -4.88987717432801E-01
 Spin= Alpha
 Occup= 1.000000
  1      -0.000000000000
  2       0.000000000000
  3       0.000000000000
  4      -0.000000000000
  5      -0.000000000000
  6       0.000000000000
  7      -0.000000000000
  8       0.000000000000
  9      -0.000000000000
 10       0.000000000000
 11      -0.000000000000
 12       0.000000000000
 13       0.000000000000
 14      -0.000000000000
 15       0.000000000000
 16       0.000000000000
 17      -0.000000000000
 18       0.000000000000
 19      -0.000000000000
 20      -0.000000000000
 21      -0.000000000000
 22       0.000000000000
 23       0.000000000000
 24       0.000000000000
 25      -0.000000000000
 26      -0.000000000000
 27      -0.000000000000
 28       0.000000000000
 29       0.000000000000
 30       0.000000000000
 31       0.000000000000
 32      -0.654757756264
 33      -0.000000000000
 34       0.000000000000
 35       0.000000000000
 36       0.000000000000
 37      -0.311982886953
 38       0.000000000000
 39      -0.000000000000
 40       0.000000000000
 41       0.000000000000
 42      -0.223774678445
 43      -0.000000000000
 44       0.000000000000
 45       0.000000000000
 46      -0.000000000000
 47      -0.087513729731
 48       0.000000000000
 49      -0.000000000000
 50      -0.000000000000
 51      -0.000000000000
 52      -0.004289596324
 53      -0.000000000000
 54      -0.000000000000
 55       0.000000000000
 56       0.000000000000
 57       0.000000000000
 58       0.000000000000
 59      -0.000000000000
 60       0.000000000000
 61       0.000000000000
 62      -0.000000000000
 63      -0.000000000000
 64       0.000000000000
 65      -0.000000000000
 66       0.000000000000
 67      -0.000000000000
 68       0.000000000000
 69      -0.000000000000
 70       0.000000000000
 71      -0.000000000000
 72      -0.000000000000
 73      -0.000000000000
 74      -0.000000000000
 75       0.000000000000
 76       0.000000000000
 77       0.000000000000
 78       0.000000000000
 79      -0.000000000000
 80       0.000000000000
 81      -0.000000000000
 82       0.000000000001
 83       0.000000000000
 84       0.000000000000
 Sym=     1a
 Ene= -4.88987717432799E-01
 Spin= Alpha
 Occup= 1.000000
  1      -0.000000000000
  2       0.000000000000
  3      -0.000000000000
  4       0.000000000000
  5       0.000000000000
  6      -0.000000000000
  7       0.000000000000
  8      -0.000000000000
  9       0.000000000000
 10      -0.000000000000
 11       0.000000000000
 12       0.000000000000
 13      -0.000000000000
 14       0.000000000000
 15       0.000000000000
 16      -0.000000000000
 17      -0.000000000000
 18      -0.000000000000
 19       0.000000000000
 20      -0.000000000000
 21      -0.000000000000
 22       0.000000000000
 23       0.000000000000
 24      -0.000000000000
 25       0.000000000000
 26      -0.000000000000
 27      -0.000000000000
 28      -0.000000000000
 29       0.000000000000
 30       0.000000000000
 31      -0.000000000000
 32       0.000000000000
 33       0.000000000000
 34       0.654757756264
 35       0.000000000000
 36      -0.000000000000
 37      -0.000000000000
 38      -0.000000000000
 39       0.311982886953
 40       0.000000000000
 41       0.000000000000
 42       0.000000000000
 43       0.000000000000
 44       0.223774678445
 45       0.000000000000
 46      -0.000000000000
 47      -0.000000000000
 48      -0.000000000000
 49       0.087513729731
 50       0.000000000000
 51      -0.000000000000
 52      -0.000000000000
 53       0.000000000000
 54       0.004289596324
 55      -0.000000000000
 56      -0.000000000000
 57      -0.000000000000
 58      -0.000000000000
 59       0.000000000000
 60       0.000000000000
 61      -0.000000000000
 62       0.000000000000
 63      -0.000000000000
 64      -0.000000000000
 65       0.000000000000
 66      -0.000000000000
 67      -0.000000000000
 68       0.000000000000
 69      -0.000000000000
 70      -0.000000000000
 71      -0.000000000000
 72       0.000000000000
 73       0.000000000000
 74       0.000000000000
 75      -0.000000000000
 76      -0.000000000000
 77       0.000000000000
 78      -0.000000000000
 79       0.000000000000
 80       0.000000000001
 81       0.000000000000
 82      -0.000000000000
 83      -0.000000000000
 84       0.000000000000
 Sym=     1a
 Ene= -4.88987716884241E-01
 Spin= Alpha
 Occup= 1.000000
  1       0.000000000000
  2       0.000000000000
  3       0.000000000000
  4      -0.000000000000
  5       0.000000000000
  6      -0.000000000000
  7       0.000000000000
  8      -0.000000000000
  9       0.000000000000
 10      -0.000000000000
 11       0.000000000000
 12       0.000000000000
 13       0.000000000000
 14      -0.000000000000
 15       0.000000000000
 16      -0.000000000000
 17      -0.000000000000
 18      -0.000000000000
 19       0.000000000000
 20      -0.000000000000
 21       0.000000000000
 22       0.000000000000
 23       0.000000000000
 24      -0.000000000000
 25      -0.000000000000
 26      -0.000000000000
 27       0.000000000000
 28       0.000000000000
 29       0.000000000000
 30       0.064598868767
 31       0.000000000000
 32      -0.000000000000
 33      -0.651563277968
 34       0.000000000000
 35       0.030780454885
 36      -0.000000000000
 37      -0.000000000000
 38      -0.310460762939
 39      -0.000000000000
 40       0.022077769931
 41       0.000000000000