 
Create Ga   file=QZ4P-Ga
XC
  HartreeFock
End
  HartreeFock

 *******************************************************************************
 *                                                                             *
 *  -------------------------------------                                      *
 *   Amsterdam Density Functional  (ADF)         2018                          *
 *  -------------------------------------                                      *
 *                                               r70630 2018-11-24             *
 *                                                                             *
 *                                                                             *
 *                              =================                              *
 *                              |               |                              *
 *                              |     A D F     |                              *
 *                              |               |                              *
 *                              =================                              *
 *                                                                             *
 *                                                                             *
 *   Online information and documentation:  https://www.scm.com/support/       *
 *   E-mail:  support@scm.com   info@scm.com                                   *
 *                                                                             *
 *   Scientific publications using ADF results must be properly referenced     *
 *   See the User Manuals (or the web site) for recommended citations          *
 *   The terms and conditions of the End User License Agreement apply to       *
 *   the use of ADF, https://www.scm.com/license-terms/                        *
 *                                                                             *
 **********************  x86_64_linux_intel / intelmpi  ************************
 
 Licensed to: Mr. Vladimir Konjkov / Florida Institute of Technology / Melbourne / Florida / USA
 SCM User ID: u21173
  
 ADF 2018  RunTime: Mar23-2019 21:01:33  Nodes: 1  Procs: 1

 Temporary files are created in /tmp/kid_0.1226969384

 Gallium (QZ, all electron, 14S 11P 6D 3F)



 ===========================
 A T T A C H E D   F I L E S
 ===========================
  
 CREATE - Data File:    QZ4P-Ga
                        Gallium (QZ, all electron, 14S 11P 6D 3F)



 ===============================
 M O D E L   P A R A M E T E R S
 ===============================
  
 DENSITY FUNCTIONAL POTENTIAL (scf)
    Hybrid:                            HARTREEFOCK                             == Not Default ==

 SPIN  (restricted / unrestr.)
    Molecule:                          Restricted                               

 OTHER ASPECTS
    Relativistic Corrections:          ---                                      

    Nuclear Charge Density Model:      Point Charge Nuclei                      
    Core Treatment:                    Frozen Orbital(s)                        

    Hyperfine or Zeeman Interaction:   ---                                      



 =====================================
 S Y M M E T R Y ,   E L E C T R O N S
 =====================================
  
 Symmetry: ATOM

 Irreducible Representations, including subspecies
 -------------------------------------------------
 S
 P:x  P:y  P:z
 D:z2  D:x2-y2  D:xy  D:xz  D:yz
 F:z3  F:z  F:xyz  F:z2x  F:z2y  F:x  F:y


 Configuration of Valence Electrons
 ==================================

          Occupation Numbers
          -------------------------------------------------
 S        4*2
 P        2*6 1
 D        10
 F        0
          -------------------------------------------------

 Total:   31

 Net Charge: 0 (Nuclei minus Electrons)

 Preset values for MO occupations will be applied through SCF cycle no. 1000000
 Thereafter, the program will assign electrons to MOs that are spatially
 similar to the occupied MOs in a "reference" cycle ("KeepOrbitals").
 The reference cycle is always the PREVIOUS cycle: it will evolve with
 the SCF procedure.



 ================================
 (Slater-type)  F U N C T I O N S  ***  (Basis and Fit)  ***
 ================================
  

 Atom Type    1  (Ga)
 ==============

 Valence Basis Sets:  34
 -----------------------
   1 S  440.000000
   1 S  115.000000
   1 S   40.400000
   1 S   29.550000
   2 S   26.700000
   2 S   13.600000
   2 S   10.750000
   3 S   12.150000
   3 S    6.050000
   3 S    4.250000
   4 S    3.650000
   4 S    2.400000
   4 S    1.600000
   4 S    1.110000
   2 P   90.000000
   2 P   29.100000
   2 P   15.400000
   2 P   10.950000
   3 P    8.500000
   3 P    5.550000
   3 P    3.650000
   4 P    2.950000
   4 P    1.750000
   4 P    1.050000
   4 P    0.650000
   3 D   12.400000
   3 D    6.850000
   3 D    3.650000
   3 D    1.950000
   4 D    1.300000
   4 D    0.650000
   4 F    4.000000
   4 F    2.000000
   4 F    1.000000

 Charge Fitting Sets (for the computation of the Coulomb Potential):  75
 -----------------------------------------------------------------------
   1 S  880.000000
   1 S  674.920000
   1 S  517.630000
   1 S  397.000000
   1 S  304.480000
   1 S  233.520000
   1 S  179.100000
   1 S  137.360000
   1 S  105.350000
   1 S   80.800000
   1 S   50.090000
   2 S   57.410000
   2 S   39.660000
   3 S   40.170000
   3 S   29.400000
   3 S   21.510000
   4 S   20.790000
   4 S   15.790000
   4 S   11.990000
   5 S   11.330000
   5 S    8.840000
   5 S    6.890000
   6 S    6.430000
   6 S    5.120000
   6 S    4.070000
   7 S    3.770000
   7 S    3.050000
   7 S    2.460000
   7 S    1.990000
   7 S    1.610000
   7 S    1.300000
   2 P   55.800000
   2 P   34.790000
   3 P   32.000000
   3 P   21.480000
   4 P   19.120000
   4 P   13.460000
   5 P   11.820000
   5 P    8.610000
   6 P    7.520000
   6 P    5.610000
   7 P    4.900000
   7 P    3.730000
   7 P    2.840000
   7 P    2.170000
   7 P    1.650000
   3 D   47.250000
   3 D   28.580000
   4 D   23.100000
   4 D   14.830000
   5 D   11.950000
   5 D    8.010000
   6 D    6.470000
   6 D    4.480000
   7 D    3.630000
   7 D    2.580000
   7 D    1.830000
   7 D    1.300000
   4 F   42.400000
   4 F   25.950000
   5 F   19.980000
   5 F   12.820000
   6 F    9.930000
   6 F    6.600000
   7 F    5.150000
   7 F    3.530000
   7 F    2.410000
   7 F    1.650000
   5 G   17.400000
   5 G   10.680000
   6 G    7.930000
   6 G    5.070000
   7 G    3.800000
   7 G    2.500000
   7 G    1.650000


 BAS: List of all Elementary Cartesian Basis Functions
 =====================================================

 The numbering in the list below (to the right of the function characteristics) is referred
 to in print-outs of MO eigenvectors and Mulliken populations in the BAS representation
 (as contrasted to the SFO representation).

 Notes:
 1. The functions are characterized by a polynomial prefactor (powers of x,y,z and r) and
    an exponential decay factor alpha.
 2. Since the basis sets are specific for an atom TYPE, the individual functions occur on
    all atoms of that type.
 3. The word 'Core' in the left margin signals that it is a Core Function (CF) : not a
    degree of freedom in the valence set, but only used to ensure orthogonalization of
    the other valence basis functions on the frozen Core Orbitals.


 (power of) X  Y  Z  R     Alpha  on Atom
            ==========     =====     ==========

 Ga                                   1
                                  ---------------------------------------------------------------------------
            0  0  0  0   440.000      1
            0  0  0  0   115.000      2
            0  0  0  0    40.400      3
            0  0  0  0    29.550      4
            0  0  0  1    26.700      5
            0  0  0  1    13.600      6
            0  0  0  1    10.750      7
            0  0  0  2    12.150      8
            0  0  0  2     6.050      9
            0  0  0  2     4.250     10
            0  0  0  3     3.650     11
            0  0  0  3     2.400     12
            0  0  0  3     1.600     13
            0  0  0  3     1.110     14
            1  0  0  0    90.000     15
            0  1  0  0    90.000     16
            0  0  1  0    90.000     17
            1  0  0  0    29.100     18
            0  1  0  0    29.100     19
            0  0  1  0    29.100     20
            1  0  0  0    15.400     21
            0  1  0  0    15.400     22
            0  0  1  0    15.400     23
            1  0  0  0    10.950     24
            0  1  0  0    10.950     25
            0  0  1  0    10.950     26
            1  0  0  1     8.500     27
            0  1  0  1     8.500     28
            0  0  1  1     8.500     29
            1  0  0  1     5.550     30
            0  1  0  1     5.550     31
            0  0  1  1     5.550     32
            1  0  0  1     3.650     33
            0  1  0  1     3.650     34
            0  0  1  1     3.650     35
            1  0  0  2     2.950     36
            0  1  0  2     2.950     37
            0  0  1  2     2.950     38
            1  0  0  2     1.750     39
            0  1  0  2     1.750     40
            0  0  1  2     1.750     41
            1  0  0  2     1.050     42
            0  1  0  2     1.050     43
            0  0  1  2     1.050     44
            1  0  0  2     0.650     45
            0  1  0  2     0.650     46
            0  0  1  2     0.650     47
            2  0  0  0    12.400     48
            1  1  0  0    12.400     49
            1  0  1  0    12.400     50
            0  2  0  0    12.400     51
            0  1  1  0    12.400     52
            0  0  2  0    12.400     53
            2  0  0  0     6.850     54
            1  1  0  0     6.850     55
            1  0  1  0     6.850     56
            0  2  0  0     6.850     57
            0  1  1  0     6.850     58
            0  0  2  0     6.850     59
            2  0  0  0     3.650     60
            1  1  0  0     3.650     61
            1  0  1  0     3.650     62
            0  2  0  0     3.650     63
            0  1  1  0     3.650     64
            0  0  2  0     3.650     65
            2  0  0  0     1.950     66
            1  1  0  0     1.950     67
            1  0  1  0     1.950     68
            0  2  0  0     1.950     69
            0  1  1  0     1.950     70
            0  0  2  0     1.950     71
            2  0  0  1     1.300     72
            1  1  0  1     1.300     73
            1  0  1  1     1.300     74
            0  2  0  1     1.300     75
            0  1  1  1     1.300     76
            0  0  2  1     1.300     77
            2  0  0  1     0.650     78
            1  1  0  1     0.650     79
            1  0  1  1     0.650     80
            0  2  0  1     0.650     81
            0  1  1  1     0.650     82
            0  0  2  1     0.650     83
            3  0  0  0     4.000     84
            2  1  0  0     4.000     85
            2  0  1  0     4.000     86
            1  2  0  0     4.000     87
            1  1  1  0     4.000     88
            1  0  2  0     4.000     89
            0  3  0  0     4.000     90
            0  2  1  0     4.000     91
            0  1  2  0     4.000     92
            0  0  3  0     4.000     93
            3  0  0  0     2.000     94
            2  1  0  0     2.000     95
            2  0  1  0     2.000     96
            1  2  0  0     2.000     97
            1  1  1  0     2.000     98
            1  0  2  0     2.000     99
            0  3  0  0     2.000    100
            0  2  1  0     2.000    101
            0  1  2  0     2.000    102
            0  0  3  0     2.000    103
            3  0  0  0     1.000    104
            2  1  0  0     1.000    105
            2  0  1  0     1.000    106
            1  2  0  0     1.000    107
            1  1  1  0     1.000    108
            1  0  2  0     1.000    109
            0  3  0  0     1.000    110
            0  2  1  0     1.000    111
            0  1  2  0     1.000    112
            0  0  3  0     1.000    113

 Total number of charge fitting functions (nprimf)       353
 Total number of Cartesian basis functions (naos)        113
 Total number of Cartesian core functions  (ncos)          0



 BAS: List of all Elementary Cartesian Basis Functions
 =====================================================

 The numbering in the list below (to the right of the function characteristics) is referred
 to in print-outs of MO eigenvectors and Mulliken populations in the BAS representation
 (as contrasted to the SFO representation).

 Notes:
 1. The functions are characterized by a polynomial prefactor (powers of x,y,z and r) and
    an exponential decay factor alpha.
 2. Since the basis sets are specific for an atom TYPE, the individual functions occur on
    all atoms of that type.
 3. The word 'Core' in the left margin signals that it is a Core Function (CF) : not a
    degree of freedom in the valence set, but only used to ensure orthogonalization of
    the other valence basis functions on the frozen Core Orbitals.


 (power of) X  Y  Z  R     Alpha  on Atom
            ==========     =====     ==========

 Ga                                   1
                                  ---------------------------------------------------------------------------
            0  0  0  0   440.000      1
            0  0  0  0   115.000      2
            0  0  0  0    40.400      3
            0  0  0  0    29.550      4
            0  0  0  1    26.700      5
            0  0  0  1    13.600      6
            0  0  0  1    10.750      7
            0  0  0  2    12.150      8
            0  0  0  2     6.050      9
            0  0  0  2     4.250     10
            0  0  0  3     3.650     11
            0  0  0  3     2.400     12
            0  0  0  3     1.600     13
            0  0  0  3     1.110     14
            1  0  0  0    90.000     15
            0  1  0  0    90.000     16
            0  0  1  0    90.000     17
            1  0  0  0    29.100     18
            0  1  0  0    29.100     19
            0  0  1  0    29.100     20
            1  0  0  0    15.400     21
            0  1  0  0    15.400     22
            0  0  1  0    15.400     23
            1  0  0  0    10.950     24
            0  1  0  0    10.950     25
            0  0  1  0    10.950     26
            1  0  0  1     8.500     27
            0  1  0  1     8.500     28
            0  0  1  1     8.500     29
            1  0  0  1     5.550     30
            0  1  0  1     5.550     31
            0  0  1  1     5.550     32
            1  0  0  1     3.650     33
            0  1  0  1     3.650     34
            0  0  1  1     3.650     35
            1  0  0  2     2.950     36
            0  1  0  2     2.950     37
            0  0  1  2     2.950     38
            1  0  0  2     1.750     39
            0  1  0  2     1.750     40
            0  0  1  2     1.750     41
            1  0  0  2     1.050     42
            0  1  0  2     1.050     43
            0  0  1  2     1.050     44
            1  0  0  2     0.650     45
            0  1  0  2     0.650     46
            0  0  1  2     0.650     47
            2  0  0  0    12.400     48
            1  1  0  0    12.400     49
            1  0  1  0    12.400     50
            0  2  0  0    12.400     51
            0  1  1  0    12.400     52
            0  0  2  0    12.400     53
            2  0  0  0     6.850     54
            1  1  0  0     6.850     55
            1  0  1  0     6.850     56
            0  2  0  0     6.850     57
            0  1  1  0     6.850     58
            0  0  2  0     6.850     59
            2  0  0  0     3.650     60
            1  1  0  0     3.650     61
            1  0  1  0     3.650     62
            0  2  0  0     3.650     63
            0  1  1  0     3.650     64
            0  0  2  0     3.650     65
            2  0  0  0     1.950     66
            1  1  0  0     1.950     67
            1  0  1  0     1.950     68
            0  2  0  0     1.950     69
            0  1  1  0     1.950     70
            0  0  2  0     1.950     71
            2  0  0  1     1.300     72
            1  1  0  1     1.300     73
            1  0  1  1     1.300     74
            0  2  0  1     1.300     75
            0  1  1  1     1.300     76
            0  0  2  1     1.300     77
            2  0  0  1     0.650     78
            1  1  0  1     0.650     79
            1  0  1  1     0.650     80
            0  2  0  1     0.650     81
            0  1  1  1     0.650     82
            0  0  2  1     0.650     83
            3  0  0  0     4.000     84
            2  1  0  0     4.000     85
            2  0  1  0     4.000     86
            1  2  0  0     4.000     87
            1  1  1  0     4.000     88
            1  0  2  0     4.000     89
            0  3  0  0     4.000     90
            0  2  1  0     4.000     91
            0  1  2  0     4.000     92
            0  0  3  0     4.000     93
            3  0  0  0     2.000     94
            2  1  0  0     2.000     95
            2  0  1  0     2.000     96
            1  2  0  0     2.000     97
            1  1  1  0     2.000     98
            1  0  2  0     2.000     99
            0  3  0  0     2.000    100
            0  2  1  0     2.000    101
            0  1  2  0     2.000    102
            0  0  3  0     2.000    103
            3  0  0  0     1.000    104
            2  1  0  0     1.000    105
            2  0  1  0     1.000    106
            1  2  0  0     1.000    107
            1  1  1  0     1.000    108
            1  0  2  0     1.000    109
            0  3  0  0     1.000    110
            0  2  1  0     1.000    111
            0  1  2  0     1.000    112
            0  0  3  0     1.000    113
1
 ***************************************************************************************************



                                              ***********************
                                              *  T E C H N I C A L  *
                                              ***********************
  



 =============================================================
 P A R A L L E L I Z A T I O N  and  V E C T O R I Z A T I O N
 =============================================================
  
 Nr of parallel processes:                                1
 Maximum vector length in NumInt loops:                 128

 IO buffersize (Mb):                                     64.000000



 =====================
 S C F   U P D A T E S
 =====================
  
 Max. nr. of cycles:                               300
 Convergence criterion:                              0.0000000100
   secondary criterion:                              0.0000000100

 Mix parameter (when DIIS does not apply):           0.2000000000
 Special mix parameter for the first cycle:          1.0000000000
 Mixed ADIIS+DIIS will be used
    Max number of expansion vectors:                10
    Pure ADIIS when Max([F,P]) is above              0.1000000000
    Pure DIIS when Max([F,P]) is below               0.0010000000
 Automatic ElectronSmearing (in case of problematic SCF convergence) disabled



 =================
 P R E C I S I O N  ***  (General: NumInt, NeglectFunctionTails, ...)  ***
 =================
  

 NumInt:           Target precision:                12.0000000000
 -------           Initial precision:               10.0000000000
                   Min. precision (optimization):   10.0000000000

 Neglect Functions:          Basis functions:        0.1000000000E-13
 ------------------          Fit functions:          0.1000000000E-13



 ===========================
 L I N E A R   S C A L I N G
 ===========================
  

 Cut-off radii density fit:                        0.1000000000E-97
 Overlap cut-off criterion AO matrix elements:     0.1000000000E-97
 Cut-offs for Coulomb potential and fitted density:0.1000000000E-97
 Cut-off criterion for Coulomb multipole terms:    0.1000000000E-97
 Progressive Convergence parameter:                 0.000000000    
1
 ***************************************************************************************************



                                            ***************************
                                            *  C O M P U T A T I O N  *
                                            ***************************
  

 Number of elements of the density matrix on this node (used, total):      6441      6441



 ===========================================
 Numerical Integration : Fuzzy Cells (Becke)
 ===========================================
  
 Becke grid quality: VERYGOOD       
  
 Lebedev angular grid order:             min:  13 max:  41
 Nr. of radial points:                   min: 175 max: 175

 Total nr. of points:        175
 Nr. of blocks:                2
 Block length:                88
 Nr. of dummy points:          1


 Test of Precision of the Numerical Integration Grid
 ===================================================

 Integral of the Total Core Density:                   0.00000000000000



 ========================
 Density Fitting (zlmFit)
 ========================
  
 ZlmFit Fit Quality: VERYGOOD       
  
 Max L-expansion:                        min:   0 max:   0
 Nr. of radial interpolation points:     min: 400 max: 400



 ======================
 RI Hartree-Fock Scheme
 ======================
  
 Fit Set Quality     : NORMAL
 Integration Quality : NORMAL
 Threshold Quality   : NORMAL
 Response Quality    : DEFAULT
 Is Range Separated  :  F
 
 RIHartreeFock Dependency: number of modified vectors:           1



 =====
 S C F  ***  ScaSCF  ***
 =====
  

 CYCLE    1
 SCF Error: norm([F,P])=      0.000000000000, max([F,P])=      0.000000000000
 orbitals (Q,E):
 ---------------
 S :1...14           ( 2.00  -480.5000)  ( 2.00  -120.1250)  ( 2.00   -53.3875)  ( 2.00   -30.0309)
                     ( 0.00   -19.2128)  ( 0.00   -13.3128)  ( 0.00    -9.7363)  ( 0.00    -7.1635)
                     ( 0.00    -4.8956)  ( 0.00    17.6517)  ( 0.00   210.6981)  ( 0.00  1266.4959)
                     ( 0.00  9149.4974)  ( 0.00127444.7126)
 P :1...11           ( 6.00  -120.1250)  ( 6.00   -53.3754)  ( 1.00   -30.0104)  ( 0.00   -19.1664)
                     ( 0.00   -13.1034)  ( 0.00    -8.9397)  ( 0.00    -5.7523)  ( 0.00    -3.4365)
                     ( 0.00    12.5604)  ( 0.00   313.8519)  ( 0.00  3962.6987)
 D :1...6            (10.00   -53.1366)  ( 0.00   -28.9291)  ( 0.00   -17.4913)  ( 0.00   -11.8718)
                     ( 0.00    -7.4563)  ( 0.00    -3.9618)
 F :1...3            ( 0.00   -23.8290)  ( 0.00   -12.1821)  ( 0.00    -6.1119)

 CYCLE    2
  SDIIS (wt  0.000):  1.0000  0.0000
 A-DIIS (wt  1.000):  0.0000  1.0000
  DIIS coefficients:  0.0000  1.0000
 SCF Error: norm([F,P])=    129.841467997110, max([F,P])=     19.757850579002
 orbitals (Q,E):
 ---------------
 S :1...5            ( 2.00  -339.6858)  ( 2.00   -22.8483)  ( 2.00    -0.0245)  ( 2.00     0.1299)
                     ( 0.00     0.5513)
 P :1...4            ( 6.00   -15.5086)  ( 6.00     0.0487)  ( 1.00     0.1973)  ( 0.00     0.5927)
 D :1...2            (10.00     0.1040)  ( 0.00     0.4876)
 F :1...1            ( 0.00     0.4113)

 CYCLE    3
  SDIIS (wt  0.000):  0.1099  0.8901
 A-DIIS (wt  1.000):  0.4400  0.5600
  DIIS coefficients:  0.4400  0.5600
 SCF Error: norm([F,P])=     42.614932116253, max([F,P])=     10.778545622675
 orbitals (Q,E):
 ---------------
 S :1...5            ( 2.00  -380.8891)  ( 2.00   -52.8142)  ( 2.00   -12.5480)  ( 2.00    -4.5767)
                     ( 0.00    -1.8409)
 P :1...4            ( 6.00   -46.7233)  ( 6.00   -10.4641)  ( 1.00    -3.8124)  ( 0.00    -1.5203)
 D :1...2            (10.00    -7.3256)  ( 0.00    -2.7640)
 F :1...1            ( 0.00    -2.1093)

 CYCLE    4
  SDIIS (wt  0.000):  0.0154 -0.0220  1.0066
 A-DIIS (wt  1.000):  0.0000  0.0000  1.0000
  DIIS coefficients:  0.0000  0.0000  1.0000
 SCF Error: norm([F,P])=      8.769440602128, max([F,P])=      1.671801679251
 orbitals (Q,E):
 ---------------
 S :1...5            ( 2.00  -375.6506)  ( 2.00   -44.8798)  ( 2.00    -4.2769)  ( 2.00     0.0122)
                     ( 0.00     0.2003)
 P :1...4            ( 6.00   -39.1837)  ( 6.00    -2.4141)  ( 1.00     0.0486)  ( 0.00     0.1966)
 D :1...2            (10.00     0.1037)  ( 0.00     0.4332)
 F :1...1            ( 0.00     0.4100)

 CYCLE    5
  SDIIS (wt  0.000):  0.0141 -0.0386  0.6891  0.3354
 A-DIIS (wt  1.000):  0.0000  0.0000  0.8963  0.1037
  DIIS coefficients:  0.0000  0.0000  0.8963  0.1037
 SCF Error: norm([F,P])=     13.303994864098, max([F,P])=      3.975632998968
 orbitals (Q,E):
 ---------------
 S :1...5            ( 2.00  -377.7195)  ( 2.00   -46.8686)  ( 2.00    -5.6549)  ( 2.00    -0.3597)
                     ( 0.00     0.0537)
 P :1...4            ( 6.00   -41.1900)  ( 6.00    -3.7447)  ( 1.00    -0.0278)  ( 0.00     0.0665)
 D :1...2            (10.00    -0.4562)  ( 0.00     0.0576)
 F :1...1            ( 0.00     0.3066)

 CYCLE    6
  SDIIS (wt  0.000):  0.0078 -0.0156  0.2584 -0.0587  0.8081
 A-DIIS (wt  1.000):  0.0000  0.0000  0.0000  0.0000  1.0000
  DIIS coefficients:  0.0000  0.0000  0.0000  0.0000  1.0000
 SCF Error: norm([F,P])=      3.835382140933, max([F,P])=      0.871084558176
 orbitals (Q,E):
 ---------------
 S :1...5            ( 2.00  -380.6461)  ( 2.00   -49.7770)  ( 2.00    -7.2267)  ( 2.00    -0.5473)
                     ( 0.00     0.0935)
 P :1...4            ( 6.00   -44.1361)  ( 6.00    -5.2819)  ( 1.00    -0.0503)  ( 0.00     0.0674)
 D :1...2            (10.00    -1.9106)  ( 0.00     0.0886)
 F :1...1            ( 0.00     0.3597)

 CYCLE    7
  SDIIS (wt  0.000): -0.0020  0.0011  0.0128  0.0022  0.4872  0.4986
 A-DIIS (wt  1.000):  0.0000  0.0000  0.0000  0.0000  0.4445  0.5555
  DIIS coefficients:  0.0000  0.0000  0.0000  0.0000  0.4445  0.5555
 SCF Error: norm([F,P])=      3.855891162022, max([F,P])=      0.874845548815
 orbitals (Q,E):
 ---------------
 S :1...5            ( 2.00  -378.6816)  ( 2.00   -48.0894)  ( 2.00    -6.3906)  ( 2.00    -0.4468)
                     ( 0.00     0.1134)
 P :1...4            ( 6.00   -42.4060)  ( 6.00    -4.4737)  ( 1.00    -0.0157)  ( 0.00     0.0833)
 D :1...2            (10.00    -1.1789)  ( 0.00     0.0924)
 F :1...1            ( 0.00     0.3688)

 CYCLE    8
  SDIIS (wt  0.527):  0.0002 -0.0003 -0.0102  0.0028 -0.0417  0.0276  1.0216
 A-DIIS (wt  0.473):  0.0000  0.0000  0.0000  0.0000  0.0000  0.0000  1.0000
  DIIS coefficients:  0.0001 -0.0001 -0.0054  0.0015 -0.0220  0.0146  1.0114
 SCF Error: norm([F,P])=      0.232483063528, max([F,P])=      0.047826633111
 orbitals (Q,E):
 ---------------
 S :1...5            ( 2.00  -378.9390)  ( 2.00   -48.2791)  ( 2.00    -6.4819)  ( 2.00    -0.4727)
                     ( 0.00     0.1056)
 P :1...4            ( 6.00   -42.6053)  ( 6.00    -4.5674)  ( 1.00    -0.0327)  ( 0.00     0.0758)
 D :1...2            (10.00    -1.2739)  ( 0.00     0.0881)
 F :1...1            ( 0.00     0.3582)

 CYCLE    9
  SDIIS (wt  0.699):  0.0000  0.0001 -0.0007  0.0009  0.0060 -0.0283  0.0018  1.0202
 A-DIIS (wt  0.301):  0.0000  0.0000  0.0000  0.0000  0.0000  0.0000  0.0000  1.0000
  DIIS coefficients:  0.0000  0.0001 -0.0005  0.0006  0.0042 -0.0198  0.0013  1.0141
 SCF Error: norm([F,P])=      0.138817436277, max([F,P])=      0.030792912560
 orbitals (Q,E):
 ---------------
 S :1...5            ( 2.00  -378.8523)  ( 2.00   -48.2030)  ( 2.00    -6.4354)  ( 2.00    -0.4577)
                     ( 0.00     0.1114)
 P :1...4            ( 6.00   -42.5280)  ( 6.00    -4.5227)  ( 1.00    -0.0264)  ( 0.00     0.0790)
 D :1...2            (10.00    -1.2338)  ( 0.00     0.0905)
 F :1...1            ( 0.00     0.3635)

 CYCLE   10
  SDIIS (wt  0.957): -0.0000 -0.0000  0.0002  0.0000 -0.0016  0.0048 -0.0572 -0.0839  1.1378
 A-DIIS (wt  0.043):  0.0000  0.0000  0.0000  0.0000  0.0000  0.0000  0.0000  0.0000  1.0000
  DIIS coefficients: -0.0000 -0.0000  0.0002  0.0000 -0.0016  0.0046 -0.0548 -0.0803  1.1319
 SCF Error: norm([F,P])=      0.022907379205, max([F,P])=      0.005231299729
 orbitals (Q,E):
 ---------------
 S :1...5            ( 2.00  -378.8702)  ( 2.00   -48.2175)  ( 2.00    -6.4439)  ( 2.00    -0.4592)
                     ( 0.00     0.1109)
 P :1...4            ( 6.00   -42.5431)  ( 6.00    -4.5314)  ( 1.00    -0.0279)  ( 0.00     0.0784)
 D :1...2            (10.00    -1.2426)  ( 0.00     0.0903)
 F :1...1            ( 0.00     0.3628)

 CYCLE   11
  SDIIS (wt  1.000):  0.0000  0.0000 -0.0000 -0.0000  0.0002 -0.0007  0.0147 -0.0070 -0.2996  1.2924
  DIIS coefficients:  0.0000  0.0000 -0.0000 -0.0000  0.0002 -0.0007  0.0147 -0.0070 -0.2996  1.2924
 SCF Error: norm([F,P])=      0.001086061269, max([F,P])=      0.000370460019
 orbitals (Q,E):
 ---------------
 S :1...5            ( 2.00  -378.8697)  ( 2.00   -48.2170)  ( 2.00    -6.4436)  ( 2.00    -0.4589)
                     ( 0.00     0.1112)
 P :1...4            ( 6.00   -42.5426)  ( 6.00    -4.5312)  ( 1.00    -0.0277)  ( 0.00     0.0785)
 D :1...2            (10.00    -1.2424)  ( 0.00     0.0904)
 F :1...1            ( 0.00     0.3630)

 CYCLE   12
  SDIIS (wt  1.000):  0.0000  0.0000  0.0000 -0.0000 -0.0000 -0.0013  0.0036  0.0266 -0.1485  1.1196
  DIIS coefficients:  0.0000  0.0000  0.0000 -0.0000 -0.0000 -0.0013  0.0036  0.0266 -0.1485  1.1196
 SCF Error: norm([F,P])=      0.000151437440, max([F,P])=      0.000030490129
 orbitals (Q,E):
 ---------------
 S :1...5            ( 2.00  -378.8698)  ( 2.00   -48.2172)  ( 2.00    -6.4437)  ( 2.00    -0.4589)
                     ( 0.00     0.1112)
 P :1...4            ( 6.00   -42.5427)  ( 6.00    -4.5313)  ( 1.00    -0.0278)  ( 0.00     0.0785)
 D :1...2            (10.00    -1.2425)  ( 0.00     0.0904)
 F :1...1            ( 0.00     0.3629)

 CYCLE   13
  SDIIS (wt  1.000): -0.0000 -0.0000 -0.0000  0.0000 -0.0000 -0.0002  0.0014 -0.0190  0.0602  0.9577
  DIIS coefficients: -0.0000 -0.0000 -0.0000  0.0000 -0.0000 -0.0002  0.0014 -0.0190  0.0602  0.9577
 SCF Error: norm([F,P])=      0.000035006641, max([F,P])=      0.000009256125
 orbitals (Q,E):
 ---------------
 S :1...5            ( 2.00  -378.8698)  ( 2.00   -48.2171)  ( 2.00    -6.4437)  ( 2.00    -0.4589)
                     ( 0.00     0.1112)
 P :1...4            ( 6.00   -42.5427)  ( 6.00    -4.5313)  ( 1.00    -0.0278)  ( 0.00     0.0785)
 D :1...2            (10.00    -1.2424)  ( 0.00     0.0904)
 F :1...1            ( 0.00     0.3629)

 CYCLE   14
  SDIIS (wt  1.000):  0.0000  0.0000 -0.0000  0.0000 -0.0000 -0.0005  0.0042 -0.0302 -0.0236  1.0501
  DIIS coefficients:  0.0000  0.0000 -0.0000  0.0000 -0.0000 -0.0005  0.0042 -0.0302 -0.0236  1.0501
 SCF Error: norm([F,P])=      0.000003408865, max([F,P])=      0.000000889462
 orbitals (Q,E):
 ---------------
 S :1...5            ( 2.00  -378.8698)  ( 2.00   -48.2172)  ( 2.00    -6.4437)  ( 2.00    -0.4589)
                     ( 0.00     0.1112)
 P :1...4            ( 6.00   -42.5427)  ( 6.00    -4.5313)  ( 1.00    -0.0278)  ( 0.00     0.0785)
 D :1...2            (10.00    -1.2424)  ( 0.00     0.0904)
 F :1...1            ( 0.00     0.3629)

 CYCLE   15
  SDIIS (wt  1.000): -0.0000  0.0000  0.0000 -0.0002  0.0027 -0.0096 -0.1048  1.1118
  DIIS coefficients: -0.0000  0.0000  0.0000 -0.0002  0.0027 -0.0096 -0.1048  1.1118
 SCF Error: norm([F,P])=      0.000000607152, max([F,P])=      0.000000137078
 orbitals (Q,E):
 ---------------
 S :1...5            ( 2.00  -378.8698)  ( 2.00   -48.2172)  ( 2.00    -6.4437)  ( 2.00    -0.4589)
                     ( 0.00     0.1112)
 P :1...4            ( 6.00   -42.5427)  ( 6.00    -4.5313)  ( 1.00    -0.0278)  ( 0.00     0.0785)
 D :1...2            (10.00    -1.2424)  ( 0.00     0.0904)
 F :1...1            ( 0.00     0.3629)

 CYCLE   16
  SDIIS (wt  1.000):  0.0000  0.0000 -0.0000  0.0001 -0.0011  0.0028  0.0490  0.9492
  DIIS coefficients:  0.0000  0.0000 -0.0000  0.0001 -0.0011  0.0028  0.0490  0.9492
 SCF Error: norm([F,P])=      0.000000020915, max([F,P])=      0.000000006686
 orbitals (Q,E):
 ---------------
 S :1...5            ( 2.00  -378.8698)  ( 2.00   -48.2172)  ( 2.00    -6.4437)  ( 2.00    -0.4589)
                     ( 0.00     0.1112)
 P :1...4            ( 6.00   -42.5427)  ( 6.00    -4.5313)  ( 1.00    -0.0278)  ( 0.00     0.0785)
 D :1...2            (10.00    -1.2424)  ( 0.00     0.0904)
 F :1...1            ( 0.00     0.3629)

 SCF CONVERGED

 CYCLE   17
1
 ***************************************************************************************************



                                                *******************
                                                *  R E S U L T S  *
                                                *******************
  
  
 Hartree-Fock exchange energy:   -73.3926495392877     
 *** Setting up for NEW gradients in Focky
 *** Using FIT density in Focky

 Orbital Energies, per Irrep and Spin:
 ======================================
                        Occup              E (au)              E (eV)       Diff (eV) with prev. cycle
                        -----      --------------------        ------       --------------------------
 S
               1        2.000     -0.37886980168593E+03    -10309.572               3.09E-08
               2        2.000     -0.48217152419226E+02     -1312.055               3.29E-08
               3        2.000     -0.64436759111624E+01      -175.341               3.30E-08
               4        2.000     -0.45891984778876E+00       -12.488               2.47E-08
               5        0.000      0.11117560670436E+00         3.025
               6        0.000      0.66949551287161E+00        18.218
               7        0.000      0.23793079299426E+01        64.744
               8        0.000      0.75171491978205E+01       204.552
               9        0.000      0.23032854612661E+02       626.756
              10        0.000      0.76212439085882E+02      2073.846
              11        0.000      0.29694383558557E+03      8080.253
              12        0.000      0.13784503071363E+04     37509.541
              13        0.000      0.92824194197541E+04    252587.484
              14        0.000      0.12758991234419E+06   3471898.166
 P
               1        6.000     -0.42542689367585E+02     -1157.645               3.28E-08
               2        6.000     -0.45312552231994E+01      -123.302               3.32E-08
               3        1.000     -0.27779938175996E-01        -0.756               1.29E-08
               4        0.000      0.78460510494132E-01         2.135
               5        0.000      0.37872769422177E+00        10.306
               6        0.000      0.14718338833343E+01        40.051
               7        0.000      0.52657912537267E+01       143.289
               8        0.000      0.18798137794794E+02       511.523
               9        0.000      0.76324578857162E+02      2076.897
              10        0.000      0.41079707728110E+03     11178.357
              11        0.000      0.40897753291511E+04    111288.449
 D
               1       10.000     -0.12424426803332E+01       -33.809               3.24E-08
               2        0.000      0.90387338433178E-01         2.460
               3        0.000      0.36675262699570E+00         9.980
               4        0.000      0.14951163076716E+01        40.684
               5        0.000      0.69267363938195E+01       188.486
               6        0.000      0.40666418269308E+02      1106.590
 F
               1        0.000      0.36294345269283E+00         9.876
               2        0.000      0.14971265179070E+01        40.739
               3        0.000      0.53643637329969E+01       145.972


 Partially Occupied:
               3 P                -0.27779938175996E-01
  
 HOMO :        4 S                -0.45891984778876E+00
 LUMO :        4 P                 0.78460510494132E-01
  


 Orbital Energies, all Irreps
 ========================================

 Irrep        no.  (spin)   Occup              E (au)                E (eV)
 ---------------------------------------------------------------------------
 S             1             2.00       -0.37886980168593E+03    -10309.5719
 S             2             2.00       -0.48217152419226E+02     -1312.0555
 P             1             6.00       -0.42542689367585E+02     -1157.6455
 S             3             2.00       -0.64436759111624E+01      -175.3413
 P             2             6.00       -0.45312552231994E+01      -123.3017
 D             1            10.00       -0.12424426803332E+01       -33.8086
 S             4             2.00       -0.45891984778876E+00       -12.4878
 P             3             1.00       -0.27779938175996E-01        -0.7559
 P             4             0.00        0.78460510494132E-01         2.1350
 D             2             0.00        0.90387338433178E-01         2.4596
 S             5             0.00        0.11117560670436E+00         3.0252
 F             1             0.00        0.36294345269283E+00         9.8762
 D             3             0.00        0.36675262699570E+00         9.9798
 P             5             0.00        0.37872769422177E+00        10.3057
 S             6             0.00        0.66949551287161E+00        18.2179
 P             6             0.00        0.14718338833343E+01        40.0506
 D             4             0.00        0.14951163076716E+01        40.6842
 F             2             0.00        0.14971265179070E+01        40.7389
 S             7             0.00        0.23793079299426E+01        64.7443
 P             7             0.00        0.52657912537267E+01       143.2895
 F             3             0.00        0.53643637329969E+01       145.9718
 D             5             0.00        0.69267363938195E+01       188.4861
 S             8             0.00        0.75171491978205E+01       204.5520
 P             8             0.00        0.18798137794794E+02       511.5234
 S             9             0.00        0.23032854612661E+02       626.7559
 D             6             0.00        0.40666418269308E+02      1106.5895
 S            10             0.00        0.76212439085882E+02      2073.8460
 P             9             0.00        0.76324578857162E+02      2076.8975
 S            11             0.00        0.29694383558557E+03      8080.2529
 P            10             0.00        0.41079707728110E+03     11178.3572
 S            12             0.00        0.13784503071363E+04     37509.5414
 P            11             0.00        0.40897753291511E+04    111288.4491
 S            13             0.00        0.92824194197541E+04    252587.4842
 S            14             0.00        0.12758991234419E+06   3471898.1663


 All Electron Calculation, thus no Orbital Energies of the Core Orbitals are calculated



 =======================================
 M U L L I K E N   P O P U L A T I O N S
 =======================================
  
 The survey below gives for each atom:
 a) the total charge (Z minus electrons)
 b) the net spin polarization (nr of electrons spin-A minus spin-B)
 c) for each spin the atomic electron valence density (integrated) per L-value.

 Atom              Charge    Spin density          S         P         D         F
 ----              ------    ------------       ------    ------    ------    ------
 1 Ga              0.0000                       8.0000   13.0000   10.0000    0.0000

 Populations of individual BAS functions
 ----------------------------------------
 1 Ga           0.0000 -0.0001  0.1673  1.8421 -0.1764  2.9496  0.0951 -0.7403  1.2984  0.5896
                0.0746  0.7648  0.9453  0.1900 -0.0000 -0.0000 -0.0000  0.0281  0.0281  0.0281
                0.9734  0.9734  0.9734  0.9605  0.9605  0.9605  0.3130  0.3130  0.3130  1.2597
                1.2597  1.2597  0.4697  0.4697  0.4697  0.0035  0.0035  0.0035  0.0997  0.0997
                0.0997  0.0990  0.0990  0.0990  0.1268  0.1268  0.1268  0.0434  0.0652  0.0652
                0.0434  0.0652  0.0434  0.5035  0.7552  0.7552  0.5035  0.7552  0.5035  0.6698
                1.0047  1.0047  0.6698  1.0047  0.6698  0.1190  0.1786  0.1786  0.1190  0.1786
                0.1190 -0.0025 -0.0037 -0.0037 -0.0025 -0.0037 -0.0025  0.0001  0.0002  0.0002
                0.0001  0.0002  0.0001  0.0000  0.0000  0.0000  0.0000  0.0000  0.0000  0.0000
                0.0000  0.0000  0.0000  0.0000  0.0000  0.0000  0.0000  0.0000  0.0000  0.0000
                0.0000  0.0000  0.0000  0.0000  0.0000  0.0000  0.0000  0.0000  0.0000  0.0000
                0.0000  0.0000  0.0000

 Gross Charges per Atom (Z minus electrons)
 ==========================================
             0.0000
 Net Total:  0.00000000



 =======================================================================
 Electrostatic potential at the Nuclei due to electrons and other nuclei
 =======================================================================
  
         Atom                  Potential
         ----                  ---------
     1)   Ga                148.59980499
 
 
 ========================
 No memory problems found
 ========================
 
 Maximum number of active allocate calls:         454
 
 *******************************************************************************

                             A D F   E X I T
 NORMAL TERMINATION



 =================
 Timing Statistics
 =================
  
 Total Used :                     CPU=        3.29      System=        0.08     Elapsed=        3.58

 Calls  Section                     ( Mean, Percentage )
 ---------------------------------------------------------------------------------------------------
     3  ><      ................      0.00    0.06             0.00    0.00             0.00    0.06
     1  INIT    ................      0.02    0.68             0.01    8.46             0.23    6.47
     1  GEOMET  ................      0.01    0.42             0.01   17.93             0.03    0.78
     1  INPUTA  ................      0.00    0.09             0.00    0.00             0.00    0.08
     1  MAINSY  ................      0.00    0.11             0.00    4.36             0.01    0.20
     1  SYMFIT  ................      0.00    0.01             0.00    0.28             0.00    0.02
     1  CORORT  ................      0.00    0.01             0.00    0.20             0.00    0.01
     1  SYMORB  ................      0.00    0.02             0.00    0.11             0.00    0.02
     1  FITINT  ................      0.05    1.67             0.00    0.00             0.05    1.53
     1  CLSMAT  ................      0.00    0.03             0.00    0.00             0.00    0.03
     1  ORTHON  ................      0.00    0.14             0.00    0.00             0.00    0.13
     1  GENPT   ................      0.02    0.75             0.00    0.00             0.02    0.69
     1  PTBAS   ................      0.00    0.11             0.00    0.00             0.00    0.10
    17  FOCKY   ................      0.18   91.04             0.00   62.68             0.18   85.24
    17  FOCKTR  ................      0.00    0.35             0.00    0.00             0.00    0.32
    17  SDIIS   ................      0.00    0.87             0.00    0.99             0.00    0.83
     1  COREPS  ................      0.06    1.84             0.00    0.00             0.06    1.69
     1  POPAN   ................      0.04    1.36             0.00    4.76             0.05    1.36
     1  DEBYE   ................      0.00    0.04             0.00    0.23             0.00    0.05
     1  EXIT PROCEDURE .........      0.01    0.42             0.00    0.00             0.01    0.39


 Currently Open Files (EXIT00)
 ====================

 Unit    Access Format  Status   Type       Ident (file)
 -------------------------------------------------------
   3      SEQ    FORM   TRANSP  NORMAL      LOGFILE
                                          ( logfile )


 Buffered I/O statistics
 =======================
 Memory available:                     67108864
 Number of records fitting in memory:     16131
 Input :   0.0% of                        92336  *4k bytes
 Output:   1.9% of                        11570  *4k bytes
 Records from serial files evicted:           0
                    others evicted:           0
 Hash table lookups:     215447 with       2608 conflicts (  1.21%)

 ***************************************************************************************************
 (LOGFILE)
 <Mar23-2019> <21:01:33>  ADF 2018  RunTime: Mar23-2019 21:01:33  Nodes: 1  Procs: 1
 <Mar23-2019> <21:01:33>  Gallium (QZ, all electron, 14S 11P 6D 3F)
 <Mar23-2019> <21:01:33>  RunType   : CREATE
 <Mar23-2019> <21:01:33>  Net Charge: 0 (Nuclei minus Electrons)
 <Mar23-2019> <21:01:33>  Symmetry  : ATOM
  Coordinates
    Atom         X           Y           Z   (Angstrom)
    1.Ga        0.000000    0.000000    0.000000
 <Mar23-2019> <21:01:33>  >>>> CORORT
 <Mar23-2019> <21:01:33>  >>>> FITINT
 <Mar23-2019> <21:01:33>  >>>> CLSMAT
 <Mar23-2019> <21:01:33>  >>>> ORTHON
 <Mar23-2019> <21:01:33>  >>>> GENPT
 <Mar23-2019> <21:01:33>  Block Length=  88
 <Mar23-2019> <21:01:33>  >>>> PTBAS
 <Mar23-2019> <21:01:33>  >>>> CYCLE
 <Mar23-2019> <21:01:34>  CalcFitR12Fit
 <Mar23-2019> <21:01:34>  CalcFitCoeff
 <Mar23-2019> <21:01:35>              |Error|         MaxErr       Wt(A-DIIS)
 <Mar23-2019> <21:01:35>      1      0.00000000      0.00000000
 <Mar23-2019> <21:01:35>      2    129.84146800     19.75785058    100.0
 <Mar23-2019> <21:01:35>      3     42.61493212     10.77854562    100.0
 <Mar23-2019> <21:01:35>      4      8.76944060      1.67180168    100.0
 <Mar23-2019> <21:01:35>      5     13.30399486      3.97563300    100.0
 <Mar23-2019> <21:01:35>      6      3.83538214      0.87108456    100.0
 <Mar23-2019> <21:01:35>      7      3.85589116      0.87484555    100.0
 <Mar23-2019> <21:01:35>      8      0.23248306      0.04782663     47.3
 <Mar23-2019> <21:01:35>      9      0.13881744      0.03079291     30.1
 <Mar23-2019> <21:01:36>     10      0.02290738      0.00523130      4.3
 <Mar23-2019> <21:01:36>     11      0.00108606      0.00037046      0.0
 <Mar23-2019> <21:01:36>     12      0.00015144      0.00003049      0.0
 <Mar23-2019> <21:01:36>     13      0.00003501      0.00000926      0.0
 <Mar23-2019> <21:01:36>     14      0.00000341      0.00000089      0.0
 <Mar23-2019> <21:01:36>     15      0.00000061      0.00000014      0.0
 <Mar23-2019> <21:01:36>     16      0.00000002      0.00000001      0.0
 <Mar23-2019> <21:01:36>  SCF converged
 <Mar23-2019> <21:01:36>     17      0.00000000      0.00000000      0.0
 <Mar23-2019> <21:01:36>  >>>> POPAN
 <Mar23-2019> <21:01:36>  >>>> DEBYE
 <Mar23-2019> <21:01:36>  NORMAL TERMINATION
 <Mar23-2019> <21:01:36>  END


 Parallel Execution: Process Information
 ==============================================================================
 Rank   Node Name                              NodeID   MyNodeRank  NodeMaster
    0   vladimir-Kubuntu-16                       0          0          0
    1   vladimir-Kubuntu-16                       0          1         -1
    2   vladimir-Kubuntu-16                       0          2         -1
    3   vladimir-Kubuntu-16                       0          3         -1
 ==============================================================================


May use up to 7611MB of RAM as shared memory on node 0
 
Title Ga

ATOMS
 Ga        0.000000000000      0.000000000000      0.000000000000
END

CHARGE 0 1

UNRESTRICTED

XC
  HartreeFock
END

EPRINT
  SFO NOEIG NOOVL NOORBPOP
  SCF NOPOP
END

NOPRINT BAS FUNCTIONS

TOTALENERGY
NOTOTEN

Fragments
Ga t21.Ga
End

 *******************************************************************************
 *                                                                             *
 *  -------------------------------------                                      *
 *   Amsterdam Density Functional  (ADF)         2018                          *
 *  -------------------------------------                                      *
 *                                               r70630 2018-11-24             *
 *                                                                             *
 *                                                                             *
 *                              =================                              *
 *                              |               |                              *
 *                              |     A D F     |                              *
 *                              |               |                              *
 *                              =================                              *
 *                                                                             *
 *                                                                             *
 *   Online information and documentation:  https://www.scm.com/support/       *
 *   E-mail:  support@scm.com   info@scm.com                                   *
 *                                                                             *
 *   Scientific publications using ADF results must be properly referenced     *
 *   See the User Manuals (or the web site) for recommended citations          *
 *   The terms and conditions of the End User License Agreement apply to       *
 *   the use of ADF, https://www.scm.com/license-terms/                        *
 *                                                                             *
 **********************  x86_64_linux_intel / intelmpi  ************************
 
 Licensed to: Mr. Vladimir Konjkov / Florida Institute of Technology / Melbourne / Florida / USA
 SCM User ID: u21173
  
 ADF 2018  RunTime: Mar23-2019 21:01:37  Nodes: 1  Procs: 4

 Temporary files are created in /tmp/kid_0.688355777


Communication costs MPI_COMM_WORLD:      0.264 usec per message,   0.0033 usec per 8-byte item
Communication costs for intra-node:      0.258 usec per message,   0.0034 usec per 8-byte item

 Ga



 ===========================
 A T T A C H E D   F I L E S
 ===========================
  



 ===============================
 M O D E L   P A R A M E T E R S
 ===============================
  
 DENSITY FUNCTIONAL POTENTIAL (scf)
    Hybrid:                            HARTREEFOCK                             == Not Default ==

 SPIN  (restricted / unrestr.)
    Molecule:                          UNrestricted                            == Not Default ==
    Fragments:                         Restricted                               

 OTHER ASPECTS
    Relativistic Corrections:          ---                                      

    Nuclear Charge Density Model:      Point Charge Nuclei                      
    Core Treatment:                    Frozen Orbital(s)                        

    Hyperfine or Zeeman Interaction:   ---                                      


 Fragment File(s)
 ----------------
 Ga:
         file : t21.Ga
         jobid: ADF 2018  RunTime: Mar23-2019 21:01:33  Nodes: 1  Procs: 1
         title: Gallium (QZ, all electron, 14S 11P 6D 3F)



                                        ************************************
                                        *  R U N   T Y P E : SINGLE POINT  *
                                        ************************************
  



 ===============
 G E O M E T R Y  ***  Single Atom  ***
 ===============
  

 ATOMS
 =====                            X Y Z                    CHARGE
                                (Angstrom)             Nucl     +Core       At.Mass
                       --------------------------    ----------------       -------
    1  Ga              0.0000    0.0000    0.0000     31.00     31.00       68.9256


 FRAGMENTS
 =========                                     Atoms in this Fragment     Cart. coord.s (Angstrom)
                                               -------------------------------------------------------
    1  Ga                                                1  Ga           0.0000    0.0000    0.0000



 =====================================
 S Y M M E T R Y ,   E L E C T R O N S
 =====================================
  
 Symmetry: ATOM

 Irreducible Representations, including subspecies
 -------------------------------------------------
 S
 P:x  P:y  P:z
 D:z2  D:x2-y2  D:xy  D:xz  D:yz
 F:z3  F:z  F:xyz  F:z2x  F:z2y  F:x  F:y


 Configuration of Valence Electrons
 ==================================
 ( determined in the SCF procedure )

 Total:   16 (Spin-A)  + 15 (Spin-B)

 Net Charge: 0 (Nuclei minus Electrons)
 Spin polar: 1 (Spin_A minus Spin_B electrons)

 Aufbau principle for MO occupations will be applied through SCF cycle no.     150
 Thereafter, the program will assign electrons to MOs that are spatially
 similar to the occupied MOs in a "reference" cycle ("KeepOrbitals").
 The reference cycle is always the PREVIOUS cycle: it will evolve with
 the SCF procedure.



 =======
 S F O s  ***  (Symmetrized Fragment Orbitals)  ***
 =======
  
 SFOs are linear combinations of (valence) Fragment Orbitals (FOs), such that the SFOs transform as the
 irreducible representations of the (molecular) symmetry group. Each SFO is therefore characterized by
 an irrep of the molecule and by a few (or only one) generating FOs.
 The SFOs constitute a symmetry-adapted basis for the Fock matrix. The MO eigenvector coefficients in
 this basis provide a direct interpretation of the MOs in terms of Frontier Orbital Theory.

 The SFOs are combined with auxiliary Core Functions (CFs) to ensure orthogonalization on the (frozen)
 Core Orbitals (COs). The Core-orthogonalized SFOs (CSFOs) constitute the true Fock basis.

 The FOs, and hence also the (C)SFOs are combinations of the elementary basis functions (BAS). The basis
 functions that participate in the description of the SFOs depend on the irrep. The indices of the
 involved functions are printed below for each irrep.
 (The complete list of primitive basis functions is printed in another section)

 Total nr. of (C)SFOs (summation over all irreps) :    98

 NOTE: a (C)SFO that is defined as a combination of more than one FO is usually NOT normalized.



                                       === S ===
 Nr. of SFOs :   14
 Cartesian basis functions that participate in this irrep (total number =    14) :
      1     2     3     4     5     6     7     8     9    10
     11    12    13    14

    SFO  (index         Fragment          Generating    Expansion in Fragment Orbitals
  indx  incl.CFs)   Occup   Orb.Energy   FragmentType  Coeff.   Orbital     on Fragment
 --------------------------------------------------------------------------------------
     1       1      2.000    -378.870 au  Ga            1.00      1 S               1
                        (  -10309.572 eV)
     2       2      2.000     -48.217 au  Ga            1.00      2 S               1
                        (   -1312.055 eV)
     3       3      2.000      -6.444 au  Ga            1.00      3 S               1
                        (    -175.341 eV)
     4       4      2.000      -0.459 au  Ga            1.00      4 S               1
                        (     -12.488 eV)
     5       5       --         0.111 au  Ga            1.00      5 S               1
                        (       3.025 eV)
     6       6       --         0.669 au  Ga            1.00      6 S               1
                        (      18.218 eV)
     7       7       --         2.379 au  Ga            1.00      7 S               1
                        (      64.744 eV)
     8       8       --         7.517 au  Ga            1.00      8 S               1
                        (     204.552 eV)
     9       9       --        23.033 au  Ga            1.00      9 S               1
                        (     626.756 eV)
    10      10       --        76.212 au  Ga            1.00     10 S               1
                        (    2073.846 eV)
    11      11       --       296.944 au  Ga            1.00     11 S               1
                        (    8080.253 eV)
    12      12       --      1378.450 au  Ga            1.00     12 S               1
                        (   37509.541 eV)
    13      13       --      9282.419 au  Ga            1.00     13 S               1
                        (  252587.484 eV)
    14      14       --    127589.912 au  Ga            1.00     14 S               1
                        ( 3471898.166 eV)



                                       === P:x ===
 Nr. of SFOs :   11
 Cartesian basis functions that participate in this irrep (total number =    11) :
     15    18    21    24    27    30    33    36    39    42
     45

    SFO  (index         Fragment          Generating    Expansion in Fragment Orbitals
  indx  incl.CFs)   Occup   Orb.Energy   FragmentType  Coeff.   Orbital     on Fragment
 --------------------------------------------------------------------------------------
     1       1      2.000     -42.543 au  Ga            1.00      1 P:x             1
                        (   -1157.645 eV)
     2       2      2.000      -4.531 au  Ga            1.00      2 P:x             1
                        (    -123.302 eV)
     3       3      0.333      -0.028 au  Ga            1.00      3 P:x             1
                        (      -0.756 eV)
     4       4       --         0.078 au  Ga            1.00      4 P:x             1
                        (       2.135 eV)
     5       5       --         0.379 au  Ga            1.00      5 P:x             1
                        (      10.306 eV)
     6       6       --         1.472 au  Ga            1.00      6 P:x             1
                        (      40.051 eV)
     7       7       --         5.266 au  Ga            1.00      7 P:x             1
                        (     143.289 eV)
     8       8       --        18.798 au  Ga            1.00      8 P:x             1
                        (     511.523 eV)
     9       9       --        76.325 au  Ga            1.00      9 P:x             1
                        (    2076.897 eV)
    10      10       --       410.797 au  Ga            1.00     10 P:x             1
                        (   11178.357 eV)
    11      11       --      4089.775 au  Ga            1.00     11 P:x             1
                        (  111288.449 eV)



                                       === P:y ===
 Nr. of SFOs :   11
 Cartesian basis functions that participate in this irrep (total number =    11) :
     16    19    22    25    28    31    34    37    40    43
     46

    SFO  (index         Fragment          Generating    Expansion in Fragment Orbitals
  indx  incl.CFs)   Occup   Orb.Energy   FragmentType  Coeff.   Orbital     on Fragment
 --------------------------------------------------------------------------------------
     1       1      2.000     -42.543 au  Ga            1.00      1 P:y             1
                        (   -1157.645 eV)
     2       2      2.000      -4.531 au  Ga            1.00      2 P:y             1
                        (    -123.302 eV)
     3       3      0.333      -0.028 au  Ga            1.00      3 P:y             1
                        (      -0.756 eV)
     4       4       --         0.078 au  Ga            1.00      4 P:y             1
                        (       2.135 eV)
     5       5       --         0.379 au  Ga            1.00      5 P:y             1
                        (      10.306 eV)
     6       6       --         1.472 au  Ga            1.00      6 P:y             1
                        (      40.051 eV)
     7       7       --         5.266 au  Ga            1.00      7 P:y             1
                        (     143.289 eV)
     8       8       --        18.798 au  Ga            1.00      8 P:y             1
                        (     511.523 eV)
     9       9       --        76.325 au  Ga            1.00      9 P:y             1
                        (    2076.897 eV)
    10      10       --       410.797 au  Ga            1.00     10 P:y             1
                        (   11178.357 eV)
    11      11       --      4089.775 au  Ga            1.00     11 P:y             1
                        (  111288.449 eV)



                                       === P:z ===
 Nr. of SFOs :   11
 Cartesian basis functions that participate in this irrep (total number =    11) :
     17    20    23    26    29    32    35    38    41    44
     47

    SFO  (index         Fragment          Generating    Expansion in Fragment Orbitals
  indx  incl.CFs)   Occup   Orb.Energy   FragmentType  Coeff.   Orbital     on Fragment
 --------------------------------------------------------------------------------------
     1       1      2.000     -42.543 au  Ga            1.00      1 P:z             1
                        (   -1157.645 eV)
     2       2      2.000      -4.531 au  Ga            1.00      2 P:z             1
                        (    -123.302 eV)
     3       3      0.333      -0.028 au  Ga            1.00      3 P:z             1
                        (      -0.756 eV)
     4       4       --         0.078 au  Ga            1.00      4 P:z             1
                        (       2.135 eV)
     5       5       --         0.379 au  Ga            1.00      5 P:z             1
                        (      10.306 eV)
     6       6       --         1.472 au  Ga            1.00      6 P:z             1
                        (      40.051 eV)
     7       7       --         5.266 au  Ga            1.00      7 P:z             1
                        (     143.289 eV)
     8       8       --        18.798 au  Ga            1.00      8 P:z             1
                        (     511.523 eV)
     9       9       --        76.325 au  Ga            1.00      9 P:z             1
                        (    2076.897 eV)
    10      10       --       410.797 au  Ga            1.00     10 P:z             1
                        (   11178.357 eV)
    11      11       --      4089.775 au  Ga            1.00     11 P:z             1
                        (  111288.449 eV)



                                       === D:z2 ===
 Nr. of SFOs :    6
 Cartesian basis functions that participate in this irrep (total number =    18) :
     48    51    53    54    57    59    60    63    65    66
     69    71    72    75    77    78    81    83

    SFO  (index         Fragment          Generating    Expansion in Fragment Orbitals
  indx  incl.CFs)   Occup   Orb.Energy   FragmentType  Coeff.   Orbital     on Fragment
 --------------------------------------------------------------------------------------
     1       1      2.000      -1.242 au  Ga            1.00      1 D:z2            1
                        (     -33.809 eV)
     2       2       --         0.090 au  Ga            1.00      2 D:z2            1
                        (       2.460 eV)
     3       3       --         0.367 au  Ga            1.00      3 D:z2            1
                        (       9.980 eV)
     4       4       --         1.495 au  Ga            1.00      4 D:z2            1
                        (      40.684 eV)
     5       5       --         6.927 au  Ga            1.00      5 D:z2            1
                        (     188.486 eV)
     6       6       --        40.666 au  Ga            1.00      6 D:z2            1
                        (    1106.590 eV)



                                       === D:x2-y2 ===
 Nr. of SFOs :    6
 Cartesian basis functions that participate in this irrep (total number =    12) :
     48    51    54    57    60    63    66    69    72    75
     78    81

    SFO  (index         Fragment          Generating    Expansion in Fragment Orbitals
  indx  incl.CFs)   Occup   Orb.Energy   FragmentType  Coeff.   Orbital     on Fragment
 --------------------------------------------------------------------------------------
     1       1      2.000      -1.242 au  Ga            1.00      1 D:x2-y2         1
                        (     -33.809 eV)
     2       2       --         0.090 au  Ga            1.00      2 D:x2-y2         1
                        (       2.460 eV)
     3       3       --         0.367 au  Ga            1.00      3 D:x2-y2         1
                        (       9.980 eV)
     4       4       --         1.495 au  Ga            1.00      4 D:x2-y2         1
                        (      40.684 eV)
     5       5       --         6.927 au  Ga            1.00      5 D:x2-y2         1
                        (     188.486 eV)
     6       6       --        40.666 au  Ga            1.00      6 D:x2-y2         1
                        (    1106.590 eV)



                                       === D:xy ===
 Nr. of SFOs :    6
 Cartesian basis functions that participate in this irrep (total number =     6) :
     49    55    61    67    73    79

    SFO  (index         Fragment          Generating    Expansion in Fragment Orbitals
  indx  incl.CFs)   Occup   Orb.Energy   FragmentType  Coeff.   Orbital     on Fragment
 --------------------------------------------------------------------------------------
     1       1      2.000      -1.242 au  Ga            1.00      1 D:xy            1
                        (     -33.809 eV)
     2       2       --         0.090 au  Ga            1.00      2 D:xy            1
                        (       2.460 eV)
     3       3       --         0.367 au  Ga            1.00      3 D:xy            1
                        (       9.980 eV)
     4       4       --         1.495 au  Ga            1.00      4 D:xy            1
                        (      40.684 eV)
     5       5       --         6.927 au  Ga            1.00      5 D:xy            1
                        (     188.486 eV)
     6       6       --        40.666 au  Ga            1.00      6 D:xy            1
                        (    1106.590 eV)



                                       === D:xz ===
 Nr. of SFOs :    6
 Cartesian basis functions that participate in this irrep (total number =     6) :
     50    56    62    68    74    80

    SFO  (index         Fragment          Generating    Expansion in Fragment Orbitals
  indx  incl.CFs)   Occup   Orb.Energy   FragmentType  Coeff.   Orbital     on Fragment
 --------------------------------------------------------------------------------------
     1       1      2.000      -1.242 au  Ga            1.00      1 D:xz            1
                        (     -33.809 eV)
     2       2       --         0.090 au  Ga            1.00      2 D:xz            1
                        (       2.460 eV)
     3       3       --         0.367 au  Ga            1.00      3 D:xz            1
                        (       9.980 eV)
     4       4       --         1.495 au  Ga            1.00      4 D:xz            1
                        (      40.684 eV)
     5       5       --         6.927 au  Ga            1.00      5 D:xz            1
                        (     188.486 eV)
     6       6       --        40.666 au  Ga            1.00      6 D:xz            1
                        (    1106.590 eV)



                                       === D:yz ===
 Nr. of SFOs :    6
 Cartesian basis functions that participate in this irrep (total number =     6) :
     52    58    64    70    76    82

    SFO  (index         Fragment          Generating    Expansion in Fragment Orbitals
  indx  incl.CFs)   Occup   Orb.Energy   FragmentType  Coeff.   Orbital     on Fragment
 --------------------------------------------------------------------------------------
     1       1      2.000      -1.242 au  Ga            1.00      1 D:yz            1
                        (     -33.809 eV)
     2       2       --         0.090 au  Ga            1.00      2 D:yz            1
                        (       2.460 eV)
     3       3       --         0.367 au  Ga            1.00      3 D:yz            1
                        (       9.980 eV)
     4       4       --         1.495 au  Ga            1.00      4 D:yz            1
                        (      40.684 eV)
     5       5       --         6.927 au  Ga            1.00      5 D:yz            1
                        (     188.486 eV)
     6       6       --        40.666 au  Ga            1.00      6 D:yz            1
                        (    1106.590 eV)



                                       === F:z3 ===
 Nr. of SFOs :    3
 Cartesian basis functions that participate in this irrep (total number =     9) :
     86    91    93    96   101   103   106   111   113

    SFO  (index         Fragment          Generating    Expansion in Fragment Orbitals
  indx  incl.CFs)   Occup   Orb.Energy   FragmentType  Coeff.   Orbital     on Fragment
 --------------------------------------------------------------------------------------
     1       1       --         0.363 au  Ga            1.00      1 F:z3            1
                        (       9.876 eV)
     2       2       --         1.497 au  Ga            1.00      2 F:z3            1
                        (      40.739 eV)
     3       3       --         5.364 au  Ga            1.00      3 F:z3            1
                        (     145.972 eV)



                                       === F:z ===
 Nr. of SFOs :    3
 Cartesian basis functions that participate in this irrep (total number =     6) :
     86    91    96   101   106   111

    SFO  (index         Fragment          Generating    Expansion in Fragment Orbitals
  indx  incl.CFs)   Occup   Orb.Energy   FragmentType  Coeff.   Orbital     on Fragment
 --------------------------------------------------------------------------------------
     1       1       --         0.363 au  Ga            1.00      1 F:z             1
                        (       9.876 eV)
     2       2       --         1.497 au  Ga            1.00      2 F:z             1
                        (      40.739 eV)
     3       3       --         5.364 au  Ga            1.00      3 F:z             1
                        (     145.972 eV)



                                       === F:xyz ===
 Nr. of SFOs :    3
 Cartesian basis functions that participate in this irrep (total number =     3) :
     88    98   108

    SFO  (index         Fragment          Generating    Expansion in Fragment Orbitals
  indx  incl.CFs)   Occup   Orb.Energy   FragmentType  Coeff.   Orbital     on Fragment
 --------------------------------------------------------------------------------------
     1       1       --         0.363 au  Ga            1.00      1 F:xyz           1
                        (       9.876 eV)
     2       2       --         1.497 au  Ga            1.00      2 F:xyz           1
                        (      40.739 eV)
     3       3       --         5.364 au  Ga            1.00      3 F:xyz           1
                        (     145.972 eV)



                                       === F:z2x ===
 Nr. of SFOs :    3
 Cartesian basis functions that participate in this irrep (total number =     9) :
     84    87    89    94    97    99   104   107   109

    SFO  (index         Fragment          Generating    Expansion in Fragment Orbitals
  indx  incl.CFs)   Occup   Orb.Energy   FragmentType  Coeff.   Orbital     on Fragment
 --------------------------------------------------------------------------------------
     1       1       --         0.363 au  Ga            1.00      1 F:z2x           1
                        (       9.876 eV)
     2       2       --         1.497 au  Ga            1.00      2 F:z2x           1
                        (      40.739 eV)
     3       3       --         5.364 au  Ga            1.00      3 F:z2x           1
                        (     145.972 eV)



                                       === F:z2y ===
 Nr. of SFOs :    3
 Cartesian basis functions that participate in this irrep (total number =     9) :
     85    90    92    95   100   102   105   110   112

    SFO  (index         Fragment          Generating    Expansion in Fragment Orbitals
  indx  incl.CFs)   Occup   Orb.Energy   FragmentType  Coeff.   Orbital     on Fragment
 --------------------------------------------------------------------------------------
     1       1       --         0.363 au  Ga            1.00      1 F:z2y           1
                        (       9.876 eV)
     2       2       --         1.497 au  Ga            1.00      2 F:z2y           1
                        (      40.739 eV)
     3       3       --         5.364 au  Ga            1.00      3 F:z2y           1
                        (     145.972 eV)



                                       === F:x ===
 Nr. of SFOs :    3
 Cartesian basis functions that participate in this irrep (total number =     6) :
     84    87    94    97   104   107

    SFO  (index         Fragment          Generating    Expansion in Fragment Orbitals
  indx  incl.CFs)   Occup   Orb.Energy   FragmentType  Coeff.   Orbital     on Fragment
 --------------------------------------------------------------------------------------
     1       1       --         0.363 au  Ga            1.00      1 F:x             1
                        (       9.876 eV)
     2       2       --         1.497 au  Ga            1.00      2 F:x             1
                        (      40.739 eV)
     3       3       --         5.364 au  Ga            1.00      3 F:x             1
                        (     145.972 eV)



                                       === F:y ===
 Nr. of SFOs :    3
 Cartesian basis functions that participate in this irrep (total number =     6) :
     85    90    95   100   105   110

    SFO  (index         Fragment          Generating    Expansion in Fragment Orbitals
  indx  incl.CFs)   Occup   Orb.Energy   FragmentType  Coeff.   Orbital     on Fragment
 --------------------------------------------------------------------------------------
     1       1       --         0.363 au  Ga            1.00      1 F:y             1
                        (       9.876 eV)
     2       2       --         1.497 au  Ga            1.00      2 F:y             1
                        (      40.739 eV)
     3       3       --         5.364 au  Ga            1.00      3 F:y             1
                        (     145.972 eV)

 Total number of charge fitting functions (nprimf)       353
 Total number of Cartesian basis functions (naos)        113
 Total number of Cartesian core functions  (ncos)          0

1
 ***************************************************************************************************



                                              ***********************
                                              *  T E C H N I C A L  *
                                              ***********************
  



 =============================================================
 P A R A L L E L I Z A T I O N  and  V E C T O R I Z A T I O N
 =============================================================
  
 Nr of parallel processes:                                4
 Maximum vector length in NumInt loops:                 128

 IO buffersize (Mb):                                     64.000000



 =====================
 S C F   U P D A T E S
 =====================
  
 Max. nr. of cycles:                               300
 Convergence criterion:                              0.0000010000
   secondary criterion:                              0.0010000000

 Mix parameter (when DIIS does not apply):           0.2000000000
 Mixed ADIIS+DIIS will be used
    Max number of expansion vectors:                10
    Pure ADIIS when Max([F,P]) is above              0.1000000000
    Pure DIIS when Max([F,P]) is below               0.0010000000
 Automatic ElectronSmearing (in case of problematic SCF convergence) disabled



 =================
 P R E C I S I O N  ***  (General: NumInt, NeglectFunctionTails, ...)  ***
 =================
  

 NumInt:           Target precision:                 4.0000000000
 -------           Initial precision:                4.0000000000
                   Min. precision (optimization):    4.0000000000

 Neglect Functions:          Basis functions:        0.1000000000E-05
 ------------------          Fit functions:          0.1000000000E-05



 ===========================
 L I N E A R   S C A L I N G
 ===========================
  

 Cut-off radii density fit:                        0.1000000000E-07
 Overlap cut-off criterion AO matrix elements:     0.1000000000E-05
 Cut-offs for Coulomb potential and fitted density:0.1000000000E-07
 Cut-off criterion for Coulomb multipole terms:    0.1000000000E-07
 Progressive Convergence parameter:                 0.000000000    
1
 ***************************************************************************************************



                                            ***************************
                                            *  C O M P U T A T I O N  *
                                            ***************************
  

 Number of elements of the density matrix on this node (used, total):      6441      6441



 ===========================================
 Numerical Integration : Fuzzy Cells (Becke)
 ===========================================
  
 Becke grid quality: NORMAL         
  
 Lebedev angular grid order:             min:  11 max:  23
 Nr. of radial points:                   min: 126 max: 126

 Total nr. of points:        126
 Nr. of blocks:                1
 Block length:               126
 Nr. of dummy points:          0


 Test of Precision of the Numerical Integration Grid
 ===================================================

 Integral of the Total Core Density:                   0.00000000000000



 ========================
 Density Fitting (zlmFit)
 ========================
  
 ZlmFit Fit Quality: NORMAL         
  
 Max L-expansion:                        min:   7 max:   7
 Nr. of radial interpolation points:     min: 120 max: 120



 ======================
 RI Hartree-Fock Scheme
 ======================
  
 Fit Set Quality     : NORMAL
 Integration Quality : NORMAL
 Threshold Quality   : NORMAL
 Response Quality    : DEFAULT
 Is Range Separated  :  F
 
 RIHartreeFock Dependency: number of modified vectors:           1



 =====
 S C F  ***  ScaSCF  ***
 =====
  
 Initial density matrix is calculated as sum of fragments

 CYCLE    1
 SCF Error: norm([F,P])=      0.002399835738, max([F,P])=      0.000299347196
 ***** SPIN 1 *****
 orbitals (Q,E):
 ---------------
 S :1...14           ( 1.00  -378.8724)  ( 1.00   -48.2185)  ( 1.00    -6.4443)  ( 1.00    -0.4591)
                     ( 0.00     0.1111)  ( 0.00     0.6693)  ( 0.00     2.3790)  ( 0.00     7.5167)
                     ( 0.00    23.0322)  ( 0.00    76.2113)  ( 0.00   296.9420)  ( 0.00  1378.4479)
                     ( 0.00  9282.4167)  ( 0.00127589.9095)
 P :1...11           ( 3.00   -42.5442)  ( 3.00    -4.5319)  ( 1.00    -0.0279)  ( 0.00     0.0784)
                     ( 0.00     0.3786)  ( 0.00     1.4716)  ( 0.00     5.2654)  ( 0.00    18.7974)
                     ( 0.00    76.3232)  ( 0.00   410.7950)  ( 0.00  4089.7727)
 D :1...6            ( 5.00    -1.2430)  ( 0.00     0.0903)  ( 0.00     0.3666)  ( 0.00     1.4948)
                     ( 0.00     6.9261)  ( 0.00    40.6653)
 F :1...3            ( 0.00     0.3628)  ( 0.00     1.4969)  ( 0.00     5.3639)
 ***** SPIN 2 *****
 orbitals (Q,E):
 ---------------
[...]
 P             3      B      0.00        0.17741059142928E-01         0.4828
 P             4     A       0.00        0.74924630301761E-01         2.0388
 D             2     A       0.00        0.88056007125257E-01         2.3961
 P             4      B      0.00        0.90458072401407E-01         2.4615
 D             2      B      0.00        0.97417262674730E-01         2.6509
 S             5     A       0.00        0.10851057821666E+00         2.9527
 S             5      B      0.00        0.12444957176065E+00         3.3864
 F             1     A       0.00        0.36263865054570E+00         9.8679
 D             3     A       0.00        0.36273018038855E+00         9.8704
 F             1      B      0.00        0.37413250439928E+00        10.1807
 P             5     A       0.00        0.37909719378605E+00        10.3158
 D             3      B      0.00        0.38577197765216E+00        10.4974
 P             5      B      0.00        0.39268978731887E+00        10.6856
 S             6     A       0.00        0.67373022279757E+00        18.3331
 S             6      B      0.00        0.68292007168477E+00        18.5832
 P             6     A       0.00        0.14790720410313E+01        40.2476
 P             6      B      0.00        0.14868303436747E+01        40.4587
 D             4     A       0.00        0.15022595764996E+01        40.8786
 F             2     A       0.00        0.15035919438863E+01        40.9148
 D             4      B      0.00        0.15115028630585E+01        41.1301
 F             2      B      0.00        0.15142674338141E+01        41.2053
 S             7     A       0.00        0.23892685309188E+01        65.0153
 S             7      B      0.00        0.23932839495733E+01        65.1246
 P             7     A       0.00        0.52773247549035E+01       143.6033
 P             7      B      0.00        0.52801694127154E+01       143.6807
 F             3     A       0.00        0.53774058320536E+01       146.3267
 F             3      B      0.00        0.53783576388349E+01       146.3526
 D             5     A       0.00        0.69395390582285E+01       188.8345
 D             5      B      0.00        0.69405737218071E+01       188.8626
 S             8     A       0.00        0.75297663758238E+01       204.8954
 S             8      B      0.00        0.75309516991984E+01       204.9276
 P             8     A       0.00        0.18810953587866E+02       511.8721
 P             8      B      0.00        0.18812086016936E+02       511.9029
 S             9     A       0.00        0.23046136269061E+02       627.1173
 S             9      B      0.00        0.23046589377008E+02       627.1296
 D             6     A       0.00        0.40679627003569E+02      1106.9490
 D             6      B      0.00        0.40680034714390E+02      1106.9601
 S            10     A       0.00        0.76225732533296E+02      2074.2077
 S            10      B      0.00        0.76226015296684E+02      2074.2154
 P             9     A       0.00        0.76337462990885E+02      2077.2481
 P             9      B      0.00        0.76338219258356E+02      2077.2686
 S            11     A       0.00        0.29695681922408E+03      8080.6062
 S            11      B      0.00        0.29695708985280E+03      8080.6136
 P            10     A       0.00        0.41080974496100E+03     11178.7019
 P            10      B      0.00        0.41081022256177E+03     11178.7149
 S            12     A       0.00        0.13784630445719E+04     37509.8880
 S            12      B      0.00        0.13784630921041E+04     37509.8893
 P            11      B      0.00        0.40897879089792E+04    111288.7914
 P            11     A       0.00        0.40897879186456E+04    111288.7917
 S            13      B      0.00        0.92824319156776E+04    252587.8242
 S            13     A       0.00        0.92824319729417E+04    252587.8257
 S            14     A       0.00        0.12758992473843E+06   3471898.5036
 S            14      B      0.00        0.12758992474164E+06   3471898.5036
  
 Spin polar: 1 (Spin_A minus Spin_B electrons)


 All Electron Calculation, thus no Orbital Energies of the Core Orbitals are calculated

 Integrated fractional orbital density (NFOD):         1.000



 =======================
 T O T A L   E N E R G Y  ***  (contributions)  ***
 =======================
  

*** Note ***

The requirements to the integration accuracy are somewhat higher than for bond energies.
One can expect an accuracy of roughly (accint-2) decimal places, where accint is the
general integration accuracy parameter.
The Coulomb energy is the sum of the Hartree energy (electron-electron Coulomb interaction)
and the nuclear-electron attraction energy. It includes the correction for the first-order
fit error in the Hartree energy.
The potential energy is the sum of the nuclear repulsion energy, the Coulomb energy,
and the exchange-correlation energy.

Kinetic energy           =         1923.189297340603

Nuclear repulsion energy =            0.000000000000
Coulomb energy           =        -3772.958265372878
XC energy                =          -73.421341152734
Total potential energy   =        -3846.379606525611

----------------------------------------------------
Total energy             =        -1923.190309185008
Virial theorem           =            2.000000526128
----------------------------------------------------

 Gross Charges per Atom (Z minus electrons)
 ==========================================
            -0.0000
 Net Total: -0.00000000



 =================================================================
 M U L T I P O L E   D E R I V E D   C H A R G E   A N A L Y S I S
 =================================================================

 This charge analysis uses the atomic multipoles (obtained from the fitted density) up to some level X,
 and reconstructs these multipoles exactly (up to level X) by distributing charges over all atoms.
 This is achieved by using Lagrange multipliers and a weight function to keep the multipoles local.

 Dummy atoms can be included (by setting INCDUM in MDC-block to 1) to obtain a fractional charge.
 This is generally useful and necessary only for small symmetrical molecules, when there are not
 enough degrees of freedom to reconstruct the multipoles.

 Since the atomic multipoles are reconstructed up to level X,
 the molecular multipoles are represented also up to level X.
 The recommended level is to reconstruct up to quadrupole : -> MDC-q charges.

 See: M. Swart, P.Th. van Duijnen, J.G. Snijders, J.Comput.Chem., (2001), p. 79-88.

 ------------------------------------------------------------------------ 
 Atomic electronic multipole moments from SCF equations (a.u.) for spin A
 ------------------------------------------------------------------------ 

   atom        charge        dip-x     dip-y     dip-z      quad-xx   quad-xy   quad-xz   quad-yy   quad-yz   quad-zz
 --------------------------------------------------------------------------------------------------------------------
    1 Ga    -0.500000    -0.000000  0.000000 -0.000000    -0.000000  0.000000  0.000000 -0.000000  0.000000  0.000000

 ------------------------------------------------------------------------ 
 Atomic electronic multipole moments from SCF equations (a.u.) for spin B
 ------------------------------------------------------------------------ 

   atom        charge        dip-x     dip-y     dip-z      quad-xx   quad-xy   quad-xz   quad-yy   quad-yz   quad-zz
 --------------------------------------------------------------------------------------------------------------------
    1 Ga     0.500000    -0.000000  0.000000  0.000000    -0.000000  0.000000  0.000000 -0.000000  0.000000  0.000000

 ----------------------------------------------------- 
 MDC atomic charges (includes spinA + spinB electrons)
 ----------------------------------------------------- 

 The MDC-m charges are just the Monopole terms in the multipole expansion, while for the MDC-d charges
 also the Dipoles are reconstructed. The usually preferred charges are the MDC-q charges.
 These reconstruct the Monopoles, Dipoles and Quadrupoles (both atomic AND molecular).

 Given here are the atomic charges of both spins added. These should be compared
 to the values from a "normal" RESTRICTED calculation.

        Atom    Level:     MDC-m        MDC-d        MDC-q
 ---------------------------------------------------------
     1     Ga           0.000000     0.000000     0.000000

 -------------------------------- 
 MDC spin density (spinA - spinB)
 -------------------------------- 
 Reported here are the the number of Alpha-electrons minus the number of Beta-electrons
 per atom, which usually are regarded as spin densities.

        Atom    Level:     MDC-m        MDC-d        MDC-q
 ---------------------------------------------------------
     1     Ga           1.000000     1.000000     1.000000

 --------------------------------------------- 
 Represented total molecular multipole moments
 --------------------------------------------- 

 Given here are the Molecular multipole moments from the atomic charges, and from the Fit Density.
 Note that the atomic charges represent the latter, NOT the ones from the Exact density.

 Reported here are the Molecular multipole moments of both spins added.
 They should be compared to the values from a "normal" RESTRICTED calculation.

            Q (a.u.)             Dipole moment (Debye)                                          Quadrupole moment (a.u.)
                                 x         y         z              xx        xy        xz        yy        yz        zz
------------------------------------------------------------------------------------------------------------------------
MDC-m         0.0000        0.0000    0.0000    0.0000          0.0000    0.0000    0.0000    0.0000    0.0000    0.0000
MDC-d         0.0000        0.0000    0.0000    0.0000          0.0000    0.0000    0.0000    0.0000    0.0000    0.0000
MDC-q         0.0000        0.0000    0.0000    0.0000          0.0000    0.0000    0.0000    0.0000    0.0000    0.0000
 
Fit.Dens.     0.0000       -0.0000    0.0000    0.0000         -0.0000    0.0000    0.0000   -0.0000    0.0000    0.0000



 ==========
 S**2 value  ***  see also R. Bulo et al., J.Am.Chem.Soc., 124 (2002) 13903-13910, note (29)  ***
 ==========
  
                                       exact      expectation value

 Total S2 (S squared)                  0.75000             0.75101



 =============
 Dipole Moment  ***  (Debye)  ***
 =============
  
 Vector   :         0.00000000      0.00000000      0.00000000
 Magnitude:         0.00000000

 This molecular dipole moment is calculated with analytic integration



 =========================================
 Quadrupole Moment (Buckingham convention)  ***  (a.u.)  ***
 =========================================
  
      quad-xx        quad-xy        quad-xz        quad-yy        quad-yz        quad-zz
      0.00000000     0.00000000     0.00000000     0.00000000     0.00000000    -0.00000000

 This molecular quadrupole moment is calculated with analytic integration



 =======================================================================
 Electrostatic potential at the Nuclei due to electrons and other nuclei
 =======================================================================
  
         Atom                  Potential
         ----                  ---------
     1)   Ga                148.61216182
 
 
 ========================
 No memory problems found
 ========================
 
 Maximum number of active allocate calls:         777
 
 *******************************************************************************

                             A D F   E X I T
 NORMAL TERMINATION with warnings



 =================
 Timing Statistics
 =================
  
 Total Used :                     CPU=        2.44      System=        0.17     Elapsed=        2.83

 Calls  Section                     ( Mean, Percentage )
 ---------------------------------------------------------------------------------------------------
     3  ><      ................      0.00    0.10             0.00    0.00             0.00    0.09
     1  INIT    ................      0.41   16.95             0.00    0.00             0.62   21.84
     1  GEOMET  ................      0.02    0.90             0.01    6.78             0.03    1.19
     1  FRAGM   ................      0.01    0.22             0.00    1.94             0.01    0.30
     1  INPUTA  ................      0.00    0.03             0.00    0.39             0.00    0.05
     1  ATDEN   ................      0.01    0.22             0.00    0.04             0.01    0.20
     1  MAINSY  ................      0.01    0.36             0.00    0.03             0.01    0.32
     1  SYMFIT  ................      0.00    0.04             0.00    0.00             0.00    0.03
     1  CORORT  ................      0.00    0.03             0.00    0.00             0.00    0.03
     1  SYMORB  ................      0.00    0.06             0.00    0.00             0.00    0.05
     1  FITINT  ................      0.05    2.22             0.00    0.01             0.05    1.92
     1  CLSMAT  ................      0.00    0.06             0.00    0.00             0.00    0.05
     1  ORTHON  ................      0.01    0.28             0.00    0.00             0.01    0.25
     1  GENPT   ................      0.03    1.10             0.00    0.00             0.03    0.95
     1  PTBAS   ................      0.01    0.24             0.00    0.00             0.01    0.21
    11  FOCKY   ................      0.15   69.76             0.01   78.38             0.17   65.36
    11  FOCKTR  ................      0.01    2.42             0.00    6.42             0.01    2.48
    11  SDIIS   ................      0.00    0.92             0.00    3.62             0.00    1.01
     1  COREPS  ................      0.03    1.26             0.00    2.40             0.03    1.23
     1  POPAN   ................      0.04    1.58             0.00    0.00             0.04    1.37
     1  DEBYE   ................      0.00    0.12             0.00    0.00             0.00    0.11
     1  EXIT PROCEDURE .........      0.03    1.11             0.00    0.00             0.03    0.96


 Currently Open Files (EXIT00)
 ====================

 Unit    Access Format  Status   Type       Ident (file)
 -------------------------------------------------------
   3      SEQ    FORM   TRANSP  NORMAL      LOGFILE
                                          ( logfile )


 Buffered I/O statistics
 =======================
 Memory available:                     67108864
 Number of records fitting in memory:     16131
 Input :   0.1% of                       101274  *4k bytes
 Output:   2.5% of                        11769  *4k bytes
 Records from serial files evicted:           0
                    others evicted:           0
 Hash table lookups:     230371 with      56409 conflicts ( 24.49%)

 ***************************************************************************************************
 (LOGFILE)
 <Mar23-2019> <21:01:33>  ADF 2018  RunTime: Mar23-2019 21:01:33  Nodes: 1  Procs: 1
 <Mar23-2019> <21:01:33>  Gallium (QZ, all electron, 14S 11P 6D 3F)
 <Mar23-2019> <21:01:33>  RunType   : CREATE
 <Mar23-2019> <21:01:33>  Net Charge: 0 (Nuclei minus Electrons)
 <Mar23-2019> <21:01:33>  Symmetry  : ATOM
  Coordinates
    Atom         X           Y           Z   (Angstrom)
    1.Ga        0.000000    0.000000    0.000000
 <Mar23-2019> <21:01:33>  >>>> CORORT
 <Mar23-2019> <21:01:33>  >>>> FITINT
 <Mar23-2019> <21:01:33>  >>>> CLSMAT
 <Mar23-2019> <21:01:33>  >>>> ORTHON
 <Mar23-2019> <21:01:33>  >>>> GENPT
 <Mar23-2019> <21:01:33>  Block Length=  88
 <Mar23-2019> <21:01:33>  >>>> PTBAS
 <Mar23-2019> <21:01:33>  >>>> CYCLE
 <Mar23-2019> <21:01:34>  CalcFitR12Fit
 <Mar23-2019> <21:01:34>  CalcFitCoeff
 <Mar23-2019> <21:01:35>              |Error|         MaxErr       Wt(A-DIIS)
 <Mar23-2019> <21:01:35>      1      0.00000000      0.00000000
 <Mar23-2019> <21:01:35>      2    129.84146800     19.75785058    100.0
 <Mar23-2019> <21:01:35>      3     42.61493212     10.77854562    100.0
 <Mar23-2019> <21:01:35>      4      8.76944060      1.67180168    100.0
 <Mar23-2019> <21:01:35>      5     13.30399486      3.97563300    100.0
 <Mar23-2019> <21:01:35>      6      3.83538214      0.87108456    100.0
 <Mar23-2019> <21:01:35>      7      3.85589116      0.87484555    100.0
 <Mar23-2019> <21:01:35>      8      0.23248306      0.04782663     47.3
 <Mar23-2019> <21:01:35>      9      0.13881744      0.03079291     30.1
 <Mar23-2019> <21:01:36>     10      0.02290738      0.00523130      4.3
 <Mar23-2019> <21:01:36>     11      0.00108606      0.00037046      0.0
 <Mar23-2019> <21:01:36>     12      0.00015144      0.00003049      0.0
 <Mar23-2019> <21:01:36>     13      0.00003501      0.00000926      0.0
 <Mar23-2019> <21:01:36>     14      0.00000341      0.00000089      0.0
 <Mar23-2019> <21:01:36>     15      0.00000061      0.00000014      0.0
 <Mar23-2019> <21:01:36>     16      0.00000002      0.00000001      0.0
 <Mar23-2019> <21:01:36>  SCF converged
 <Mar23-2019> <21:01:36>     17      0.00000000      0.00000000      0.0
 <Mar23-2019> <21:01:36>  >>>> POPAN
 <Mar23-2019> <21:01:36>  >>>> DEBYE
 <Mar23-2019> <21:01:36>  NORMAL TERMINATION
 <Mar23-2019> <21:01:36>  END
 <Mar23-2019> <21:01:37>  ADF 2018  RunTime: Mar23-2019 21:01:37  Nodes: 1  Procs: 4
 <Mar23-2019> <21:01:37>  Ga
 <Mar23-2019> <21:01:37>  RunType   : SINGLE POINT
 <Mar23-2019> <21:01:37>  Net Charge: 0 (Nuclei minus Electrons)
 <Mar23-2019> <21:01:37>  Spin polar: 1 (Spin_A minus Spin_B electrons)
 <Mar23-2019> <21:01:37>  Symmetry  : ATOM
 <Mar23-2019> <21:01:37>  >>>> FRAGM
  Coordinates
    Atom         X           Y           Z   (Angstrom)
    1.Ga        0.000000    0.000000    0.000000
 <Mar23-2019> <21:01:37>  >>>> CORORT
 <Mar23-2019> <21:01:37>  >>>> FITINT
 <Mar23-2019> <21:01:37>  >>>> CLSMAT
 <Mar23-2019> <21:01:37>  >>>> ORTHON
 <Mar23-2019> <21:01:37>  >>>> GENPT
 <Mar23-2019> <21:01:37>  Block Length= 126
 <Mar23-2019> <21:01:37>  >>>> PTBAS
 <Mar23-2019> <21:01:37>  >>>> CYCLE
 <Mar23-2019> <21:01:38>  CalcFitR12Fit
 <Mar23-2019> <21:01:38>  CalcFitCoeff
 <Mar23-2019> <21:01:38>              |Error|         MaxErr       Wt(A-DIIS)
 <Mar23-2019> <21:01:38>      1      0.00239984      0.00029935
 <Mar23-2019> <21:01:38>      2      0.01961666      0.00482046    100.0
 <Mar23-2019> <21:01:38>      3      0.01005187      0.00425845    100.0
 <Mar23-2019> <21:01:39>      4      0.00605161      0.00139043      0.4
 <Mar23-2019> <21:01:39>      5      0.00295042      0.00058115      0.0
 <Mar23-2019> <21:01:39>      6      0.00064053      0.00013135      0.0
 <Mar23-2019> <21:01:39>      7      0.00009154      0.00002930      0.0
 <Mar23-2019> <21:01:39>      8      0.00002863      0.00001203      0.0
 <Mar23-2019> <21:01:39>      9      0.00000775      0.00000268      0.0
 <Mar23-2019> <21:01:39>     10      0.00000085      0.00000014      0.0
 <Mar23-2019> <21:01:39>  SCF converged
 <Mar23-2019> <21:01:39>     11      0.00000019      0.00000006      0.0
 <Mar23-2019> <21:01:39>  WARNING: partially occupied orbitals
 <Mar23-2019> <21:01:39>   Solutions with partially occupied orbitals may not be
 <Mar23-2019> <21:01:39>   lowest in energy. You might consider lowering the
 <Mar23-2019> <21:01:39>   symmetry in the input and explicitly specifying integer
 <Mar23-2019> <21:01:39>   occupations. In that case always check that you obtain
 <Mar23-2019> <21:01:39>   an aufbau solution.
 <Mar23-2019> <21:01:39>   Total energy      -1923.19030919 a.u.
 <Mar23-2019> <21:01:39>  >>>> POPAN
 <Mar23-2019> <21:01:39>  >>>> DEBYE
 <Mar23-2019> <21:01:39>  NORMAL TERMINATION with warnings
 <Mar23-2019> <21:01:39>  END
