[Molden Format]
[Title]
 Molden file created by orca_2mkl for BaseName=/opt/quantum_chemistry/!PROJECT/ORCA/HF/def2-QZVP/Ni//mol

[Atoms] AU
Ni   1  28          0.0000000000         0.0000000000         0.0000000000 
[GTO]
  1 0
s  11 1.0 
  5037649.9532000003         0.6838006286
   754246.3941799999         1.2799186297
   171644.1601000000         2.2171367426
    48617.2302860000         3.6298718225
    15860.9617950000         5.6742284923
     5726.0018653000         8.4752116086
     2232.9547317000        11.9431229566
      925.4964910100        15.3351501772
      402.7533691300        16.6776394659
      182.1942285600        13.2734708006
       84.4941097880         5.8054143229
s   4 1.0 
     1678.0564586000         1.3822236796
      519.2135832600         5.6677899674
      198.9588160700        12.6989884534
       85.9011807030        12.7791963901
s   1 1.0 
       38.4357601230        11.0017481249
s   1 1.0 
       18.2523493510         6.2936005002
s   1 1.0 
        8.7283616939         3.6191754993
s   1 1.0 
        3.7616245662         1.9250485115
s   1 1.0 
        1.8028217338         1.1088548006
s   1 1.0 
        0.7950714051         0.6000876555
s   1 1.0 
        0.1703172028         0.1889530816
s   1 1.0 
        0.0789712362         0.1061724391
s   1 1.0 
        0.0345034867         0.0570567894
p   9 1.0 
     9156.5701453000        22.1860800362
     2169.0239526000        32.2485749358
      703.9891899100        44.0975597278
      268.3629321500        54.4666955595
      113.1028879600        58.0415830856
       50.9555392220        48.9158358883
       23.8967082090        28.8547776974
       11.4982415220         9.3444566957
        5.4410908056         1.0346670833
p   5 1.0 
       75.9385607360        -1.5506120875
       27.0373501840        -2.0829205778
        5.3404687432         2.6810986800
        2.4700181361         2.1171845690
        1.1095029064         0.6272841889
p   1 1.0 
        0.4589976710         0.5385216779
p   1 1.0 
        0.1870000000         0.1752839277
p   1 1.0 
        0.0762000000         0.0570668370
p   1 1.0 
        0.0310000000         0.0185413864
d   6 1.0 
      258.1113114200        75.1695011377
       77.2548913710        78.0118366120
       29.5002400330        66.0163266823
       12.4774469450        44.3406727123
        5.6070455111        22.3506825771
        2.5427744163         7.6873673182
d   1 1.0 
        1.1238296774         3.4970025775
d   1 1.0 
        0.4736117146         0.7708313095
d   1 1.0 
        0.1816185832         0.1440457933
d   1 1.0 
        0.0710000000         0.0278401899
f   1 1.0 
        6.7580000000       419.8469484323
f   1 1.0 
        2.1740000000        32.7215632534
f   1 1.0 
        0.6810000000         2.4020446781
g   1 1.0 
        2.8720000000       119.8054694763

[5D]
[9G]
[MO]
 Sym=     1a
 Ene= -3.05399230094685E+02
 Spin= Alpha
 Occup= 1.000000
  1       0.954180263092
  2      -0.000235857669
  3       0.067908842740
  4      -0.000886321679
  5       0.001728442576
  6      -0.000809096357
  7       0.000366041274
  8      -0.000139878120
  9       0.000048345626
 10      -0.000037030573
 11       0.000011624078
 12      -0.000000000000
 13       0.000000000000
 14      -0.000000000000
 15      -0.000000000000
 16       0.000000000000
 17      -0.000000000000
 18       0.000000000000
 19      -0.000000000000
 20       0.000000000000
 21      -0.000000000000
 22       0.000000000000
 23       0.000000000000
 24      -0.000000000000
 25      -0.000000000000
 26      -0.000000000000
 27      -0.000000000000
 28       0.000000000000
 29       0.000000000000
 30       0.000003308144
 31       0.000000000000
 32       0.000000000000
 33      -0.000000107528
 34      -0.000000000000
 35      -0.000003194566
 36      -0.000000000000
 37      -0.000000000000
 38       0.000000103818
 39       0.000000000000
 40       0.000002181046
 41       0.000000000000
 42       0.000000000000
 43      -0.000000070894
 44      -0.000000000000
 45      -0.000001049553
 46      -0.000000000000
 47      -0.000000000000
 48       0.000000034109
 49       0.000000000000
 50       0.000000364990
 51       0.000000000000
 52      -0.000000000000
 53      -0.000000011866
 54      -0.000000000000
 55      -0.000000000000
 56      -0.000000000000
 57       0.000000000000
 58      -0.000000000000
 59       0.000000000000
 60       0.000000000000
 61       0.000000000000
 62      -0.000000000000
 63       0.000000000000
 64       0.000000000000
 65      -0.000000000000
 66       0.000000000000
 67      -0.000000000000
 68      -0.000000000000
 69       0.000000000000
 70      -0.000000000000
 71       0.000000000000
 72       0.000000000000
 73       0.000000000000
 74      -0.000000000000
 75       0.000000000000
 76      -0.000000037331
 77       0.000000000000
 78       0.000000000000
 79      -0.000000000807
 80       0.000000000000
 81      -0.000000000000
 82       0.000000000000
 83       0.000000000010
 84       0.000000000000
 Sym=     1a
 Ene= -3.76901514814395E+01
 Spin= Alpha
 Occup= 1.000000
  1       0.295144493787
  2       0.178661635122
  3      -0.048143147743
  4      -0.527338709204
  5      -0.499224189960
  6      -0.085686194652
  7       0.003722874112
  8      -0.002546382114
  9       0.000513043154
 10      -0.000401482704
 11       0.000125868390
 12       0.000000000000
 13       0.000000000000
 14      -0.000000000000
 15      -0.000000000000
 16       0.000000000000
 17       0.000000000000
 18       0.000000000000
 19      -0.000000000000
 20       0.000000000000
 21      -0.000000000000
 22       0.000000000000
 23      -0.000000000000
 24       0.000000000000
 25      -0.000000000000
 26      -0.000000000000
 27       0.000000000000
 28       0.000000000000
 29      -0.000000000000
 30      -0.000931741654
 31       0.000000000000
 32       0.000000000000
 33       0.000030009596
 34       0.000000000000
 35       0.000562038781
 36      -0.000000000000
 37       0.000000000000
 38      -0.000018140957
 39       0.000000000000
 40      -0.000361595424
 41       0.000000000000
 42       0.000000000000
 43       0.000011683395
 44      -0.000000000000
 45       0.000172813718
 46      -0.000000000000
 47      -0.000000000000
 48      -0.000005585316
 49       0.000000000000
 50      -0.000060114045
 51       0.000000000000
 52      -0.000000000000
 53       0.000001943030
 54      -0.000000000000
 55       0.000000000000
 56      -0.000000000000
 57      -0.000000000000
 58       0.000000000000
 59      -0.000000000000
 60      -0.000000000000
 61       0.000000000000
 62      -0.000000000000
 63       0.000000000000
 64       0.000000000000
 65      -0.000000000000
 66       0.000000000000
 67       0.000000000000
 68       0.000000000000
 69       0.000000000000
 70       0.000000000000
 71      -0.000000000000
 72       0.000000000000
 73      -0.000000000000
 74       0.000000000000
 75      -0.000000000000
 76      -0.000070955499
 77      -0.000000000000
 78       0.000000000000
 79      -0.000001475755
 80      -0.000000000000
 81       0.000000000000
 82       0.000000000000
 83       0.000000018539
 84       0.000000000000
 Sym=     1a
 Ene= -3.27417784270376E+01
 Spin= Alpha
 Occup= 1.000000
  1       0.000000000000
  2      -0.000000000000
  3      -0.000000000000
  4       0.000000000000
  5      -0.000000000000
  6       0.000000000000
  7      -0.000000000000
  8       0.000000000000
  9      -0.000000000000
 10      -0.000000000000
 11       0.000000000000
 12      -0.000000000000
 13       0.000000000000
 14      -0.997565900610
 15      -0.000000000000
 16      -0.000000000000
 17      -0.006874408428
 18       0.000000000000
 19      -0.000000000000
 20       0.001096747551
 21      -0.000000000000
 22      -0.000000000000
 23      -0.000786013471
 24       0.000000000000
 25       0.000000000000
 26       0.000386771630
 27      -0.000000000000
 28       0.000000000000
 29      -0.000124192907
 30      -0.000000000000
 31      -0.000000000000
 32       0.000000000000
 33      -0.000000000000
 34       0.000000000000
 35       0.000000000000
 36      -0.000000000000
 37       0.000000000000
 38       0.000000000000
 39       0.000000000000
 40       0.000000000000
 41       0.000000000000
 42      -0.000000000000
 43       0.000000000000
 44       0.000000000000
 45      -0.000000000000
 46       0.000000000000
 47      -0.000000000000
 48      -0.000000000000
 49      -0.000000000000
 50      -0.000000000000
 51       0.000000000000
 52       0.000000000000
 53      -0.000000000000
 54       0.000000000000
 55      -0.000613780601
 56      -0.000000000000
 57      -0.000000000000
 58       0.000005402859
 59      -0.000000000000
 60      -0.000000000000
 61       0.000000000000
 62       0.000098980794
 63       0.000000000000
 64       0.000000000000
 65      -0.000001226726
 66       0.000000000000
 67       0.000000000000
 68      -0.000000000000
 69      -0.000040285887
 70       0.000000000000
 71       0.000000000000
 72       0.000000460602
 73       0.000000000000
 74      -0.000000000000
 75      -0.000000000000
 76      -0.000000000000
 77       0.000000000000
 78      -0.000000000000
 79       0.000000000000
 80      -0.000000000000
 81       0.000000000000
 82      -0.000000000000
 83       0.000000000000
 84       0.000000000000
 Sym=     1a
 Ene= -3.27057148036787E+01
 Spin= Alpha
 Occup= 1.000000
  1       0.000000000000
  2      -0.000000000000
  3       0.000000000000
  4      -0.000000000000
  5       0.000000000000
  6      -0.000000000000
  7       0.000000000000
  8       0.000000000000
  9      -0.000000000000
 10      -0.000000000000
 11       0.000000000000
 12       0.000000000000
 13       0.997790908931
 14      -0.000000000000
 15      -0.000000000000
 16       0.006190880669
 17       0.000000000000
 18       0.000000000000
 19      -0.000634605622
 20       0.000000000000
 21      -0.000000000000
 22       0.000429102611
 23       0.000000000000
 24       0.000000000000
 25      -0.000187878700
 26       0.000000000000
 27      -0.000000000000
 28       0.000058525476
 29      -0.000000000000
 30       0.000000000000
 31       0.000000000000
 32       0.000000000000
 33      -0.000000000000
 34       0.000000000000
 35      -0.000000000000
 36      -0.000000000000
 37      -0.000000000000
 38       0.000000000000
 39       0.000000000000
 40       0.000000000000
 41       0.000000000000
 42      -0.000000000000
 43      -0.000000000000
 44       0.000000000000
 45      -0.000000000000
 46      -0.000000000000
 47       0.000000000000
 48       0.000000000000
 49       0.000000000000
 50       0.000000000000
 51       0.000000000000
 52      -0.000000000000
 53       0.000000000000
 54       0.000000000000
 55       0.000000000000
 56      -0.000000000000
 57       0.000179028182
 58       0.000000000000
 59      -0.000000000000
 60       0.000000000000
 61       0.000012425892
 62       0.000000000000
 63       0.000000000000
 64      -0.000040449237
 65      -0.000000000000
 66      -0.000000000000
 67      -0.000000000000
 68      -0.000002226581
 69       0.000000000000
 70      -0.000000000000
 71       0.000015275611
 72       0.000000000000
 73      -0.000000000000
 74      -0.000000000000
 75       0.000000884279
 76      -0.000000000000
 77       0.000000000000
 78      -0.000000000000
 79       0.000000000000
 80      -0.000000000000
 81      -0.000000000000
 82      -0.000000000000
 83      -0.000000000000
 84       0.000000000000
 Sym=     1a
 Ene= -3.27043400262131E+01
 Spin= Alpha
 Occup= 1.000000
  1      -0.000000000000
  2       0.000000000000
  3       0.000000000000
  4      -0.000000000000
  5      -0.000000000000
  6       0.000000000000
  7      -0.000000000000
  8      -0.000000000000
  9       0.000000000000
 10      -0.000000000000
 11      -0.000000000000
 12       0.997799381011
 13       0.000000000000
 14       0.000000000000
 15       0.006165112277
 16      -0.000000000000
 17      -0.000000000000
 18      -0.000617210865
 19      -0.000000000000
 20       0.000000000000
 21       0.000415649731
 22      -0.000000000000
 23      -0.000000000000
 24      -0.000180375692
 25       0.000000000000
 26       0.000000000000
 27       0.000056049636
 28      -0.000000000000
 29       0.000000000000
 30      -0.000000000000
 31       0.000000000000
 32      -0.000000000000
 33      -0.000000000000
 34       0.000000000000
 35       0.000000000000
 36      -0.000000000000
 37       0.000000000000
 38       0.000000000000
 39       0.000000000000
 40       0.000000000000
 41      -0.000000000000
 42       0.000000000000
 43       0.000000000000
 44       0.000000000000
 45       0.000000000000
 46       0.000000000000
 47      -0.000000000000
 48      -0.000000000000
 49      -0.000000000000
 50      -0.000000000000
 51       0.000000000000
 52       0.000000000000
 53       0.000000000000
 54       0.000000000000
 55      -0.000000000000
 56       0.000191361541
 57       0.000000000000
 58      -0.000000000000
 59       0.000000000000
 60       0.000012319017
 61       0.000000000000
 62      -0.000000000000
 63      -0.000042336712
 64      -0.000000000000
 65       0.000000000000
 66       0.000000000000
 67      -0.000002213166
 68      -0.000000000000
 69       0.000000000000
 70       0.000016058304
 71       0.000000000000
 72      -0.000000000000
 73       0.000000000000
 74       0.000000878505
 75       0.000000000000
 76       0.000000000000
 77      -0.000000000000
 78       0.000000000000
 79      -0.000000000000
 80      -0.000000000000
 81       0.000000000000
 82      -0.000000000000
 83       0.000000000000
 84       0.000000000000
 Sym=     1a
 Ene= -4.70552218261054E+00
 Spin= Alpha
 Occup= 1.000000
  1       0.109685555401
  2       0.078733090196
  3      -0.019013224762
  4      -0.323822179832
  5      -0.452172943625
  6       0.169926217385
  7       0.707057385950
  8       0.386472897003
  9       0.021259963525
 10      -0.010372193177
 11       0.002836432328
 12      -0.000000000000
 13       0.000000000000
 14      -0.000000000000
 15       0.000000000000
 16       0.000000000000
 17      -0.000000000000
 18      -0.000000000000
 19      -0.000000000000
 20      -0.000000000000
 21       0.000000000000
 22       0.000000000000
 23       0.000000000000
 24       0.000000000000
 25      -0.000000000000
 26       0.000000000000
 27      -0.000000000000
 28       0.000000000000
 29      -0.000000000000
 30       0.009787414605
 31       0.000000000000
 32       0.000000000000
 33      -0.000303334711
 34       0.000000000000
 35       0.005622291988
 36      -0.000000000000
 37      -0.000000000000
 38      -0.000176037951
 39       0.000000000000
 40      -0.001226384650
 41       0.000000000000
 42       0.000000000000
 43       0.000038758504
 44      -0.000000000000
 45       0.000726120574
 46       0.000000000000
 47      -0.000000000000
 48      -0.000022923124
 49       0.000000000000
 50      -0.000270700761
 51      -0.000000000000
 52      -0.000000000000
 53       0.000008572907
 54      -0.000000000000
 55       0.000000000000
 56       0.000000000000
 57       0.000000000000
 58       0.000000000000
 59       0.000000000000
 60      -0.000000000000
 61       0.000000000000
 62      -0.000000000000
 63      -0.000000000000
 64       0.000000000000
 65      -0.000000000000
 66      -0.000000000000
 67       0.000000000000
 68      -0.000000000000
 69       0.000000000000
 70       0.000000000000
 71      -0.000000000000
 72       0.000000000000
 73       0.000000000000
 74       0.000000000000
 75       0.000000000000
 76       0.001879375486
 77       0.000000000000
 78       0.000000000000
 79       0.000037739184
 80       0.000000000000
 81      -0.000000000000
 82       0.000000000000
 83      -0.000000506449
 84       0.000000000000
 Sym=     1a
 Ene= -3.17158064826241E+00
 Spin= Alpha
 Occup= 1.000000
  1      -0.000000000000
  2       0.000000000000
  3      -0.000000000000
  4       0.000000000000
  5      -0.000000000000
  6       0.000000000000
  7      -0.000000000000
  8       0.000000000000
  9       0.000000000000
 10      -0.000000000000
 11       0.000000000000
 12      -0.000000000000
 13       0.000000000000
 14      -0.374120003691
 15      -0.000000000000
 16       0.000000000000
 17       1.005057261976
 18      -0.000000000000
 19      -0.000000000000
 20       0.100814861959
 21       0.000000000000
 22      -0.000000000000
 23      -0.002022952457
 24      -0.000000000000
 25       0.000000000000
 26       0.003857451524
 27       0.000000000000
 28       0.000000000000
 29      -0.001042329947
 30      -0.000000000000
 31      -0.000000000000
 32       0.000000000000
 33      -0.000000000000
 34       0.000000000000
 35       0.000000000000
 36       0.000000000000
 37      -0.000000000000
 38      -0.000000000000
 39       0.000000000000
 40      -0.000000000000
 41      -0.000000000000
 42      -0.000000000000
 43       0.000000000000
 44      -0.000000000000
 45       0.000000000000
 46       0.000000000000
 47       0.000000000000
 48      -0.000000000000
 49      -0.000000000000
 50      -0.000000000000
 51      -0.000000000000
 52      -0.000000000000
 53      -0.000000000000
 54      -0.000000000000
 55       0.002366683813
 56      -0.000000000000
 57      -0.000000000000
 58      -0.000018587765
 59       0.000000000000
 60       0.000000000000
 61      -0.000000000000
 62       0.006759597484
 63       0.000000000000
 64       0.000000000000
 65      -0.000052278915
 66       0.000000000000
 67       0.000000000000
 68       0.000000000000
 69       0.001574762125
 70      -0.000000000000
 71       0.000000000000
 72      -0.000018422171
 73      -0.000000000000
 74       0.000000000000
 75      -0.000000000000
 76       0.000000000000
 77      -0.000000000000
 78      -0.000000000000
 79      -0.000000000000
 80       0.000000000000
 81      -0.000000000000
 82       0.000000000000
 83      -0.000000000000
 84       0.000000000000
 Sym=     1a
 Ene= -3.09319142836504E+00
 Spin= Alpha
 Occup= 1.000000
  1      -0.000000000000
  2       0.000000000000
  3       0.000000000000
  4       0.000000000000
  5      -0.000000000000
  6       0.000000000000
  7       0.000000000000
  8      -0.000000000000
  9      -0.000000000000
 10      -0.000000000000
 11       0.000000000000
 12      -0.000000000000
 13      -0.372842190078
 14       0.000000000000
 15       0.000000000000
 16       1.001880053920
 17       0.000000000000
 18       0.000000000000
 19       0.105374577304
 20      -0.000000000000
 21      -0.000000000000
 22      -0.002095037990
 23       0.000000000000
 24      -0.000000000000
 25       0.004247130601
 26      -0.000000000000
 27       0.000000000000
 28      -0.001151506796
 29       0.000000000000
 30      -0.000000000000
 31      -0.000000000000
 32       0.000000000000
 33      -0.000000000000
 34       0.000000000000
 35       0.000000000000
 36       0.000000000000
 37       0.000000000000
 38      -0.000000000000
 39      -0.000000000000
 40      -0.000000000000
 41      -0.000000000000
 42       0.000000000000
 43      -0.000000000000
 44      -0.000000000000
 45       0.000000000000
 46      -0.000000000000
 47      -0.000000000000
 48       0.000000000000
 49       0.000000000000
 50      -0.000000000000
 51       0.000000000000
 52       0.000000000000
 53       0.000000000000
 54      -0.000000000000
 55       0.000000000000
 56      -0.000000000000
 57       0.000624522755
 58      -0.000000000000
 59      -0.000000000000
 60       0.000000000000
 61       0.000046551350
 62       0.000000000000
 63       0.000000000000
 64       0.001775346944
 65       0.000000000000
 66      -0.000000000000
 67      -0.000000000000
 68       0.000133117768
 69      -0.000000000000
 70      -0.000000000000
 71       0.000645914070
 72       0.000000000000
 73       0.000000000000
 74       0.000000000000
 75       0.000035969640
 76      -0.000000000000
 77      -0.000000000000
 78       0.000000000000
 79       0.000000000000
 80      -0.000000000000
 81      -0.000000000000
 82      -0.000000000000
 83      -0.000000000000
 84       0.000000000000
 Sym=     1a
 Ene= -3.09024141986484E+00
 Spin= Alpha
 Occup= 1.000000
  1       0.000000000000
  2       0.000000000000
  3      -0.000000000000
  4      -0.000000000000
  5       0.000000000000
  6      -0.000000000000
  7       0.000000000000
  8       0.000000000000
  9      -0.000000000000
 10       0.000000000000
 11       0.000000000000
 12       0.372793172853
 13       0.000000000000
 14      -0.000000000000
 15      -1.001757484094
 16       0.000000000000
 17       0.000000000000
 18      -0.105546203908
 19      -0.000000000000
 20       0.000000000000
 21       0.002096158967
 22       0.000000000000
 23      -0.000000000000
 24      -0.004262172112
 25       0.000000000000
 26       0.000000000000
 27       0.001155556474
 28      -0.000000000000
 29      -0.000000000000
 30      -0.000000000000
 31      -0.000000000000
 32       0.000000000000
 33      -0.000000000000
 34      -0.000000000000
 35       0.000000000000
 36       0.000000000000
 37      -0.000000000000
 38      -0.000000000000
 39      -0.000000000000
 40      -0.000000000000
 41      -0.000000000000
 42       0.000000000000
 43       0.000000000000
 44       0.000000000000
 45       0.000000000000
 46       0.000000000000
 47      -0.000000000000
 48      -0.000000000000
 49       0.000000000000
 50      -0.000000000000
 51      -0.000000000000
 52       0.000000000000
 53      -0.000000000000
 54      -0.000000000000
 55      -0.000000000000
 56      -0.000672798753
 57      -0.000000000000
 58       0.000000000000
 59      -0.000000000000
 60      -0.000046120357
 61       0.000000000000
 62      -0.000000000000
 63      -0.001914531957
 64       0.000000000000
 65       0.000000000000
 66       0.000000000000
 67      -0.000131902390
 68      -0.000000000000
 69      -0.000000000000
 70      -0.000678231620
 71      -0.000000000000
 72      -0.000000000000
 73      -0.000000000000
 74      -0.000035794993
 75      -0.000000000000
 76       0.000000000000
 77      -0.000000000000
 78       0.000000000000
 79      -0.000000000000
 80       0.000000000000
 81      -0.000000000000
 82       0.000000000000
 83       0.000000000000
 84       0.000000000000
 Sym=     1a
 Ene= -5.48628316313506E-01
 Spin= Alpha
 Occup= 1.000000
  1       0.001359040431
  2       0.000993402497
  3      -0.000233685949
  4      -0.004274100741
  5      -0.005863638814
  6       0.002434058056
  7       0.009942837674
  8       0.006157193227
  9      -0.003108077706
 10      -0.001100552720
 11      -0.000125192531
 12       0.000000000000
 13       0.000000000000
 14      -0.000000000000
 15      -0.000000000000
 16      -0.000000000000
 17       0.000000000000
 18       0.000000000000
 19       0.000000000000
 20       0.000000000000
 21      -0.000000000000
 22      -0.000000000000
 23      -0.000000000000
 24      -0.000000000000
 25       0.000000000000
 26       0.000000000000
 27       0.000000000000
 28      -0.000000000000
 29      -0.000000000000
 30      -0.609448022713
 31       0.000000000000
 32       0.000000000000
 33      -0.010043219972
 34      -0.000000000000
 35      -0.321770284769
 36       0.000000000000
 37      -0.000000000000
 38      -0.005302063278
 39      -0.000000000000
 40      -0.237680015850
 41      -0.000000000000
 42      -0.000000000000
 43      -0.003913867402
 44       0.000000000000
 45      -0.103588776382
 46       0.000000000000
 47      -0.000000000000
 48      -0.001704885418
 49       0.000000000000
 50      -0.008864885722
 51       0.000000000000
 52      -0.000000000000
 53      -0.000145423237
 54      -0.000000000000
 55       0.000000000000
 56       0.000000000000
 57       0.000000000000
 58       0.000000000000
 59      -0.000000000000
 60      -0.000000000000
 61       0.000000000000
 62      -0.000000000000
 63      -0.000000000000
 64       0.000000000000
 65      -0.000000000000
 66       0.000000000000
 67      -0.000000000000
 68      -0.000000000000
 69       0.000000000000
 70      -0.000000000000
 71      -0.000000000000
 72       0.000000000000
 73       0.000000000000
 74       0.000000000000
 75       0.000000000000
 76      -0.004429415603
 77       0.000000000000
 78       0.000000000000
 79       0.000046373379
 80       0.000000000000
 81       0.000000000000
 82       0.000000000000
 83      -0.000002331638
 84       0.000000000000
 Sym=     1a
 Ene= -4.83504575761034E-01
 Spin= Alpha
 Occup= 1.000000
  1       0.000000000000
  2      -0.000000000000
  3      -0.000000000000
  4       0.000000000000
  5       0.000000000000
  6      -0.000000000000
  7       0.000000000000
  8      -0.000000000000
  9       0.000000000000
 10      -0.000000000000
 11       0.000000000000
 12      -0.000000000000
 13       0.000000000000
 14       0.000000000000
 15       0.000000000000
 16      -0.000000000000
 17      -0.000000000000
 18      -0.000000000000
 19       0.000000000000
 20      -0.000000000000
 21       0.000000000000
 22      -0.000000000000
 23      -0.000000000000
 24       0.000000000000
 25       0.000000000000
 26       0.000000000000
 27      -0.000000000000
 28       0.000000000000
 29      -0.000000000000
 30       0.000000000000
 31      -0.000000000000
 32      -0.599209264849
 33      -0.000000000000
 34       0.000000000000
 35      -0.000000000000
 36      -0.000000000000
 37      -0.316848172503
 38      -0.000000000000
 39       0.000000000000
 40      -0.000000000000
 41       0.000000000000
 42      -0.245928466284
 43      -0.000000000000
 44      -0.000000000000
 45       0.000000000000
 46      -0.000000000000
 47      -0.119244864120
 48      -0.000000000000
 49      -0.000000000000
 50      -0.000000000000
 51      -0.000000000000
 52      -0.014892110001
 53      -0.000000000000
 54      -0.000000000000
 55       0.000000000000
 56       0.000000000000
 57       0.000000000000
 58      -0.000000000000
 59      -0.000000000000
 60      -0.000000000000
 61      -0.000000000000
 62      -0.000000000000
 63      -0.000000000000
 64      -0.000000000000
 65      -0.000000000000
 66      -0.000000000000
 67       0.000000000000
 68       0.000000000000
 69       0.000000000000
 70       0.000000000000
 71      -0.000000000000
 72      -0.000000000000
 73       0.000000000000
 74      -0.000000000000
 75       0.000000000000
 76      -0.000000000000
 77       0.000000000000
 78      -0.003209074380
 79      -0.000000000000
 80       0.000000000000
 81      -0.000000000000
 82      -0.000050166277
 83       0.000000000000
 84       0.000000000000
 Sym=     1a
 Ene= -4.82398853962790E-01
 Spin= Alpha
 Occup= 1.000000
  1      -0.000000000000
  2      -0.000000000000
  3       0.000000000000
  4       0.000000000000
  5      -0.000000000000
  6       0.000000000000
  7      -0.000000000000
  8       0.000000000000
  9      -0.000000000000
 10       0.000000000000
 11      -0.000000000000
 12       0.000000000000
 13      -0.000000000000
 14      -0.000000000000
 15      -0.000000000000
 16       0.000000000000
 17      -0.000000000000
 18       0.000000000000
 19      -0.000000000000
 20       0.000000000000
 21       0.000000000000
 22       0.000000000000
 23      -0.000000000000
 24      -0.000000000000
 25      -0.000000000000
 26       0.000000000000
 27       0.000000000000
 28       0.000000000000
 29       0.000000000000
 30       0.000000000000
 31      -0.599050513697
 32      -0.000000000000
 33       0.000000000000
 34      -0.000000000000
 35      -0.000000000000
 36      -0.316789343616
 37       0.000000000000
 38      -0.000000000000
 39      -0.000000000000
 40       0.000000000000
 41      -0.246014924448
 42      -0.000000000000
 43      -0.000000000000
 44       0.000000000000
 45       0.000000000000
 46      -0.119488742714
 47       0.000000000000
 48      -0.000000000000
 49       0.000000000000
 50       0.000000000000
 51      -0.015006120265
 52      -0.000000000000
 53       0.000000000000
 54       0.000000000000
 55       0.000000000000
 56      -0.000000000000
 57      -0.000000000000
 58      -0.000000000000
 59       0.000000000000
 60       0.000000000000
 61      -0.000000000000
 62      -0.000000000000
 63       0.000000000000
 64      -0.000000000000
 65      -0.000000000000
 66      -0.000000000000
 67       0.000000000000
 68       0.000000000000
 69       0.000000000000
 70       0.000000000000
 71       0.000000000000
 72       0.000000000000
 73      -0.000000000000
 74      -0.000000000000
 75       0.000000000000
 76      -0.000000000000
 77      -0.003291807962
 78       0.000000000000
 79      -0.000000000000
 80       0.000000000000
 81      -0.000049605808
 82       0.000000000000
 83      -0.000000000000
 84       0.000000000000
 Sym=     1a
 Ene= -4.52666860294778E-01
 Spin= Alpha
 Occup= 1.000000
  1       0.000000000000
  2      -0.000000000000
  3       0.000000000000
  4      -0.000000000000
  5      -0.000000000000
  6       0.000000000000
  7      -0.000000000000
  8       0.000000000000
  9      -0.000000000000
 10       0.000000000000
 11      -0.000000000000
 12      -0.000000000000
 13      -0.000000000000
 14       0.000000000000
 15      -0.000000000000
 16      -0.000000000000
 17       0.000000000000
 18      -0.000000000000
 19      -0.000000000000
 20      -0.000000000000
 21       0.000000000000
 22       0.000000000000
 23      -0.000000000000
 24      -0.000000000000
 25      -0.000000000000
 26      -0.000000000000
 27       0.000000000000
 28       0.000000000000
 29      -0.000000000000
 30       0.000000000000
 31       0.000000000000
 32      -0.000000000000
 33       0.000000000000
 34       0.594629102583
 35       0.000000000000
 36      -0.000000000000
 37       0.000000000000
 38      -0.000000000000
 39       0.315079888254