[Molden Format]
[Title]
 Molden file created by orca_2mkl for BaseName=/opt/quantum_chemistry/!PROJECT/ORCA/HF/def2-QZVP/V//mol

[Atoms] AU
V    1  23          0.0000000000         0.0000000000         0.0000000000 
[GTO]
  1 0
s  11 1.0 
  3360380.0381999998         0.5091535871
   502646.7317800000         0.9538622516
   114247.2286700000         1.6536424487
    32321.9726300000         2.7089053314
    10532.9472710000         4.2365794082
     3798.3004439000         6.3285040408
     1479.6094715000         8.9105338451
      612.5740550700        11.4099532936
      266.2210332600        12.3395269688
      120.2198012600         9.7227600904
       55.5911808480         4.1741281332
s   4 1.0 
     1082.4768635000         1.0561362078
      334.9446206100         4.2670535772
      128.3155902600         9.3640751887
       55.3115896160         9.0302284237
s   1 1.0 
       25.1083830360         7.9941842051
s   1 1.0 
       11.6675532420         4.4992998357
s   1 1.0 
        5.5372073270         2.5726350421
s   1 1.0 
        2.3781007618         1.3648432658
s   1 1.0 
        1.1506947329         0.7918267807
s   1 1.0 
        0.5128399104         0.4319131771
s   1 1.0 
        0.1162571145         0.1418975010
s   1 1.0 
        0.0582727856         0.0845297192
s   1 1.0 
        0.0266623122         0.0470255030
p   9 1.0 
     5782.8035005000        13.2053614839
     1369.9392282000        19.1486937242
      444.5314712900        26.0024598287
      169.2561755600        31.6994351257
       71.1687300310        33.1861069599
       31.9333583740        27.3351637544
       14.8653367790        15.8497040122
        7.0921740091         5.1329183926
        3.3281157846         0.5655782297
p   5 1.0 
       45.8429060170        -0.7942055119
       15.9403390160        -0.9999937583
        3.1257155025         1.3358976268
        1.4485867558         1.0825825403
        0.6557790283         0.3300801984
p   1 1.0 
        0.2731162664         0.2814326930
p   1 1.0 
        0.1220000000         0.1027755658
p   1 1.0 
        0.0550000000         0.0379658782
p   1 1.0 
        0.0250000000         0.0141698450
d   5 1.0 
      103.9504741400        41.1375627001
       30.9016886650        37.5342170011
       11.4203211450        26.3272789953
        4.6573272292        14.9426236404
        1.9963682623         6.0153468340
d   1 1.0 
        0.8496724953         2.1436817640
d   1 1.0 
        0.3495322188         0.4529734085
d   1 1.0 
        0.1316558823         0.0820333699
d   1 1.0 
        0.0520000000         0.0161426910
f   1 1.0 
        2.9330000000        64.1877601212
f   1 1.0 
        0.8310000000         3.7592601651
f   1 1.0 
        0.2570000000         0.2681325922
g   1 1.0 
        1.0090000000         6.7479235660

[5D]
[9G]
[MO]
 Sym=     1a
 Ene= -2.01503411723190E+02
 Spin= Alpha
 Occup= 1.000000
  1      -0.956617905900
  2       0.000504809696
  3      -0.065145442774
  4       0.000731744262
  5      -0.001760052928
  6       0.000844982035
  7      -0.000396421853
  8       0.000160664848
  9      -0.000063642621
 10       0.000050714892
 11      -0.000015270830
 12      -0.000000000000
 13       0.000000000000
 14      -0.000000000000
 15       0.000000000000
 16       0.000000000000
 17       0.000000000000
 18      -0.000000000000
 19      -0.000000000000
 20      -0.000000000000
 21       0.000000000000
 22       0.000000000000
 23       0.000000000000
 24      -0.000000000000
 25      -0.000000000000
 26      -0.000000000000
 27       0.000000000000
 28       0.000000000000
 29       0.000000000000
 30       0.000000000000
 31       0.000000000000
 32       0.000000000000
 33      -0.000000000001
 34      -0.000000000001
 35       0.000000000000
 36      -0.000000000000
 37      -0.000000000000
 38      -0.000000000000
 39      -0.000000000000
 40      -0.000000000000
 41       0.000000000000
 42       0.000000000000
 43       0.000000000000
 44       0.000000000000
 45       0.000000000000
 46      -0.000000000000
 47      -0.000000000000
 48      -0.000000000000
 49      -0.000000000000
 50      -0.000000000000
 51       0.000000000000
 52       0.000000000000
 53       0.000000000000
 54       0.000000000000
 55       0.000000000000
 56      -0.000000000000
 57      -0.000000000000
 58       0.000000000000
 59       0.000000000000
 60      -0.000000000000
 61       0.000000000000
 62      -0.000000000000
 63       0.000000000000
 64       0.000000000000
 65      -0.000000000000
 66      -0.000000000000
 67       0.000000000000
 68      -0.000000000000
 69       0.000000000000
 70      -0.000000000000
 71      -0.000000000000
 72       0.000000000000
 73       0.000000000000
 74      -0.000000000000
 75       0.000000000000
 76       0.000000044123
 77       0.000000000030
 78       0.000000001433
 79      -0.000000000016
 80      -0.000000000005
 81       0.000000000540
 82      -0.000000000045
 83      -0.000000003912
 84      -0.000000037101
 Sym=     1a
 Ene= -2.39044037231766E+01
 Spin= Alpha
 Occup= 1.000000
  1      -0.287510281458
  2      -0.174922933716
  3       0.054133458796
  4       0.518546854952
  5       0.498825693125
  6       0.087741390755
  7      -0.004006980707
  8       0.002816038054
  9      -0.000678277368
 10       0.000542775700
 11      -0.000162807977
 12       0.000000000000
 13       0.000000000000
 14      -0.000000000000
 15       0.000000000000
 16       0.000000000000
 17      -0.000000000000
 18      -0.000000000000
 19      -0.000000000000
 20       0.000000000000
 21       0.000000000000
 22       0.000000000000
 23      -0.000000000000
 24      -0.000000000000
 25       0.000000000000
 26       0.000000000000
 27       0.000000000000
 28      -0.000000000000
 29      -0.000000000000
 30      -0.000000000124
 31      -0.000000000005
 32      -0.000000000076
 33       0.000000000228
 34       0.000000000221
 35       0.000000000169
 36       0.000000000032
 37       0.000000000076
 38      -0.000000000312
 39      -0.000000000302
 40      -0.000000000138
 41      -0.000000000019
 42      -0.000000000039
 43       0.000000000258
 44       0.000000000243
 45       0.000000000058
 46       0.000000000009
 47       0.000000000020
 48      -0.000000000107
 49      -0.000000000102
 50      -0.000000000022
 51      -0.000000000003
 52      -0.000000000007
 53       0.000000000040
 54       0.000000000038
 55      -0.000000000000
 56      -0.000000000000
 57       0.000000000000
 58      -0.000000000000
 59      -0.000000000000
 60      -0.000000000000
 61       0.000000000000
 62       0.000000000000
 63       0.000000000000
 64      -0.000000000000
 65      -0.000000000000
 66       0.000000000000
 67       0.000000000000
 68      -0.000000000000
 69      -0.000000000000
 70      -0.000000000000
 71       0.000000000000
 72       0.000000000000
 73       0.000000000000
 74      -0.000000000000
 75       0.000000000000
 76      -0.000234727151
 77      -0.000000161640
 78      -0.000007622958
 79       0.000000084705
 80       0.000000024113
 81      -0.000002872241
 82       0.000000240912
 83       0.000020809129
 84       0.000197370419
 Sym=     1a
 Ene= -2.00524805815704E+01
 Spin= Alpha
 Occup= 1.000000
  1      -0.000000000000
  2      -0.000000000000
  3       0.000000000000
  4       0.000000000000
  5       0.000000000000
  6      -0.000000000000
  7       0.000000000000
  8      -0.000000000000
  9       0.000000000000
 10      -0.000000000000
 11       0.000000000000
 12      -0.926136775683
 13      -0.370168122039
 14       0.019939190105
 15      -0.006775482973
 16      -0.002708096558
 17       0.000145872158
 18       0.001940869234
 19       0.000775747125
 20      -0.000041785795
 21      -0.001577147061
 22      -0.000630370797
 23       0.000033955056
 24       0.000878303098
 25       0.000351049461
 26      -0.000018909354
 27      -0.000282463780
 28      -0.000112898108
 29       0.000006081280
 30       0.000000000000
 31      -0.000000000000
 32      -0.000000000000
 33       0.000000000000
 34       0.000000000000
 35       0.000000000000
 36       0.000000000000
 37       0.000000000000
 38       0.000000000000
 39       0.000000000000
 40      -0.000000000000
 41      -0.000000000000
 42      -0.000000000000
 43      -0.000000000000
 44      -0.000000000000
 45      -0.000000000000
 46       0.000000000000
 47       0.000000000000
 48       0.000000000000
 49       0.000000000000
 50       0.000000000000
 51      -0.000000000000
 52       0.000000000000
 53      -0.000000000000
 54      -0.000000000000
 55      -0.000012702053
 56      -0.000725722552
 57      -0.000290695622
 58      -0.000006882344
 59      -0.000006198158
 60      -0.000470891998
 61      -0.000892465017
 62      -0.000002688931
 63      -0.000153630658
 64      -0.000061538338
 65      -0.000001456941
 66      -0.000001312132
 67      -0.000099684712
 68      -0.000188928934
 69      -0.000000509797
 70      -0.000029126825
 71      -0.000011667048
 72      -0.000000276221
 73      -0.000000248761
 74      -0.000018899217
 75      -0.000035819018
 76      -0.000000000000
 77      -0.000000000000
 78      -0.000000000000
 79      -0.000000000000
 80       0.000000000000
 81      -0.000000000000
 82       0.000000000000
 83      -0.000000000000
 84       0.000000000000
 Sym=     1a
 Ene= -2.00524805768042E+01
 Spin= Alpha
 Occup= 1.000000
  1       0.000000000000
  2       0.000000000000
  3       0.000000000000
  4      -0.000000000000
  5       0.000000000000
  6      -0.000000000000
  7       0.000000000000
  8      -0.000000000000
  9       0.000000000000
 10       0.000000000000
 11       0.000000000000
 12       0.180122691656
 13      -0.402454637920
 14       0.894839324323
 15       0.001317752062
 16      -0.002944300891
 17       0.006546516991
 18      -0.000377476508
 19       0.000843409440
 20      -0.001875281684
 21       0.000306736723
 22      -0.000685352944
 23       0.001523850473
 24      -0.000170819735
 25       0.000381668712
 26      -0.000848622655
 27       0.000054935919
 28      -0.000122745308
 29       0.000272918493
 30       0.000000000000
 31       0.000000000000
 32      -0.000000000000
 33       0.000000000000
 34      -0.000000000000
 35      -0.000000000000
 36      -0.000000000000
 37       0.000000000000
 38      -0.000000000000
 39       0.000000000000
 40       0.000000000000
 41       0.000000000000
 42      -0.000000000000
 43       0.000000000000
 44       0.000000000000
 45      -0.000000000000
 46      -0.000000000000
 47       0.000000000000
 48      -0.000000000000
 49      -0.000000000000
 50       0.000000000000
 51       0.000000000000
 52      -0.000000000000
 53       0.000000000000
 54       0.000000000000
 55      -0.001131419602
 56       0.000140335386
 57      -0.000351060449
 58       0.000008236231
 59       0.000007194951
 60      -0.000395003329
 61       0.000224637481
 62      -0.000239513996
 63       0.000029708071
 64      -0.000074317135
 65       0.000001743572
 66       0.000001523127
 67      -0.000083619574
 68       0.000047554262
 69      -0.000045409450
 70       0.000005632349
 71      -0.000014089786
 72       0.000000330569
 73       0.000000288777
 74      -0.000015853435
 75       0.000009015811
 76      -0.000000000000
 77       0.000000000000
 78      -0.000000000000
 79      -0.000000000000
 80       0.000000000000
 81      -0.000000000000
 82       0.000000000000
 83      -0.000000000000
 84      -0.000000000000
 Sym=     1a
 Ene= -2.00524805752244E+01
 Spin= Alpha
 Occup= 1.000000
  1       0.000000000000
  2       0.000000000000
  3      -0.000000000000
  4      -0.000000000000
  5      -0.000000000000
  6       0.000000000000
  7      -0.000000000000
  8       0.000000000000
  9      -0.000000000000
 10       0.000000000000
 11      -0.000000000000
 12       0.324002817334
 13      -0.834360330926
 14      -0.440472869040
 15       0.002370358533
 16      -0.006104061625
 17      -0.003222436773
 18      -0.000679000788
 19       0.001748538305
 20       0.000923082669
 21       0.000551754784
 22      -0.001420858992
 23      -0.000750095294
 24      -0.000307268742
 25       0.000791267368
 26       0.000417723308
 27       0.000098818151
 28      -0.000254472935
 29      -0.000134340529
 30       0.000000000000
 31      -0.000000000000
 32       0.000000000000
 33      -0.000000000000
 34       0.000000000000
 35      -0.000000000000
 36       0.000000000000
 37      -0.000000000000
 38      -0.000000000000
 39      -0.000000000000
 40      -0.000000000000
 41       0.000000000000
 42       0.000000000000
 43       0.000000000000
 44       0.000000000000
 45       0.000000000000
 46       0.000000000000
 47      -0.000000000000
 48       0.000000000000
 49      -0.000000000000
 50      -0.000000000000
 51      -0.000000000000
 52       0.000000000000
 53       0.000000000000
 54       0.000000000000
 55       0.000590542911
 56       0.000254172194
 57      -0.000635489601
 58       0.000015517928
 59       0.000014079451
 60      -0.000800394321
 61       0.000413999056
 62       0.000125014017
 63       0.000053806555
 64      -0.000134528922
 65       0.000003285055
 66       0.000002980526
 67      -0.000169438150
 68       0.000087640849
 69       0.000023701398
 70       0.000010201181
 71      -0.000025505323
 72       0.000000622804
 73       0.000000565072
 74      -0.000032123779
 75       0.000016615827
 76       0.000000000000
 77      -0.000000000000
 78       0.000000000000
 79      -0.000000000000
 80       0.000000000000
 81      -0.000000000000
 82       0.000000000000
 83       0.000000000000
 84      -0.000000000000
 Sym=     1a
 Ene= -3.28836702281282E+00
 Spin= Alpha
 Occup= 1.000000
  1       0.103915999565
  2       0.074111302887
  3      -0.020947937764
  4      -0.297904372336
  5      -0.446008235431
  6       0.114688153780
  7       0.723544986278
  8       0.406300832952
  9       0.017966361028
 10      -0.008399426816
 11       0.002036592130
 12       0.000000000000
 13       0.000000000000
 14       0.000000000000
 15      -0.000000000000
 16      -0.000000000000
 17      -0.000000000000
 18      -0.000000000000
 19      -0.000000000000
 20       0.000000000000
 21       0.000000000000
 22       0.000000000000
 23      -0.000000000000
 24      -0.000000000000
 25      -0.000000000000
 26       0.000000000000
 27       0.000000000000
 28       0.000000000000
 29      -0.000000000000
 30       0.000000008973
 31       0.000000000549
 32      -0.000000000718
 33      -0.000000017043
 34      -0.000000015299
 35       0.000000003675
 36       0.000000000104
 37       0.000000000043
 38      -0.000000006959
 39      -0.000000006288
 40      -0.000000001814
 41      -0.000000000043
 42       0.000000000661
 43       0.000000003492
 44       0.000000003022
 45      -0.000000000175
 46       0.000000000010
 47      -0.000000000126
 48       0.000000000323
 49       0.000000000313
 50      -0.000000000084
 51      -0.000000000005
 52       0.000000000049
 53       0.000000000164
 54       0.000000000139
 55       0.000000000000
 56       0.000000000000
 57       0.000000000000
 58       0.000000000000
 59       0.000000000000
 60       0.000000000000
 61      -0.000000000000
 62      -0.000000000000
 63       0.000000000000
 64       0.000000000000
 65      -0.000000000000
 66      -0.000000000000
 67      -0.000000000000
 68       0.000000000000
 69      -0.000000000000
 70       0.000000000000
 71       0.000000000000
 72       0.000000000000
 73       0.000000000000
 74       0.000000000000
 75       0.000000000000
 76      -0.004906004897
 77      -0.000003378427
 78      -0.000159326555
 79       0.000001770445
 80       0.000000504015
 81      -0.000060032358
 82       0.000005035269
 83       0.000434929188
 84       0.004125216186
 Sym=     1a
 Ene= -2.14946752283618E+00
 Spin= Alpha
 Occup= 1.000000
  1       0.000000000000
  2       0.000000000000
  3      -0.000000000000
  4      -0.000000000000
  5      -0.000000000000
  6       0.000000000000
  7       0.000000000000
  8       0.000000000000
  9       0.000000000000
 10      -0.000000000000
 11       0.000000000000
 12       0.127852841233
 13      -0.329364175049
 14      -0.055702643744
 15      -0.360374957817
 16       0.928368893316
 17       0.157007365652
 18      -0.030623947362
 19       0.078890941239
 20       0.013342177974
 21       0.000602557539
 22      -0.001552259916
 23      -0.000262521906
 24      -0.001035225541
 25       0.002666864214
 26       0.000451025735
 27       0.000243589661
 28      -0.000627515946
 29      -0.000106126901
 30       0.000000000000
 31      -0.000000000000
 32      -0.000000000000
 33      -0.000000000000
 34       0.000000000000
 35       0.000000000000
 36      -0.000000000000
 37      -0.000000000000
 38      -0.000000000000
 39       0.000000000000
 40       0.000000000000
 41       0.000000000000
 42       0.000000000000
 43      -0.000000000000
 44      -0.000000000000
 45       0.000000000000
 46      -0.000000000000
 47      -0.000000000000
 48       0.000000000000
 49       0.000000000000
 50      -0.000000000000
 51      -0.000000000000
 52       0.000000000000
 53       0.000000000000
 54       0.000000000000
 55      -0.001574195347
 56      -0.001924208541
 57       0.004908865591
 58      -0.000118535178
 59      -0.000106982555
 60       0.006091309804
 61      -0.003139544891
 62      -0.002768770394
 63      -0.003384389088
 64       0.008633945304
 65      -0.000208485201
 66      -0.000188165868
 67       0.010713689532
 68      -0.005521983054
 69      -0.000658480401
 70      -0.000804888467
 71       0.002053358209
 72      -0.000049582454
 73      -0.000044749978
 74       0.002547976001
 75      -0.001313261904
 76      -0.000000000000
 77      -0.000000000000
 78      -0.000000000000
 79       0.000000000000
 80       0.000000000000
 81       0.000000000000
 82       0.000000000000
 83      -0.000000000000
 84       0.000000000000
 Sym=     1a
 Ene= -2.14946751292138E+00
 Spin= Alpha
 Occup= 1.000000
  1       0.000000000000
  2       0.000000000000
  3      -0.000000000000
  4      -0.000000000000
  5      -0.000000000000
  6       0.000000000000
  7       0.000000000000
  8       0.000000000000
  9      -0.000000000000
 10       0.000000000000
 11      -0.000000000000
 12      -0.046778704315
 13       0.041401928595
 14      -0.352175418101
 15       0.131853725973
 16      -0.116698371726
 17       0.992666256521
 18       0.011204671638
 19      -0.009916790770
 20       0.084354813542
 21      -0.000220462880
 22       0.000195122120
 23      -0.001659766614
 24       0.000378768346
 25      -0.000335230702
 26       0.002851569107
 27      -0.000089124580
 28       0.000078880064
 29      -0.000670977209
 30      -0.000000000000
 31       0.000000000000
 32       0.000000000000
 33       0.000000000000
 34       0.000000000000
 35      -0.000000000000
 36       0.000000000000
 37       0.000000000000
 38       0.000000000000
 39       0.000000000000
 40       0.000000000000
 41      -0.000000000000
 42      -0.000000000000
 43      -0.000000000000
 44       0.000000000000
 45      -0.000000000000
 46       0.000000000000
 47       0.000000000000
 48      -0.000000000000
 49      -0.000000000000
 50       0.000000000000
 51      -0.000000000000
 52       0.000000000000
 53       0.000000000000
 54       0.000000000000
 55      -0.008624841048
 56       0.000698063349
 57      -0.000894418149
 58       0.000025291295
 59       0.000021104210
 60      -0.000774502782
 61       0.000993901481
 62      -0.015169782296
 63       0.001227786545
 64      -0.001573144343
 65       0.000044486955
 66       0.000037122145
 67      -0.001362233090
 68       0.001748121202
 69      -0.003607739445
 70       0.000291996791
 71      -0.000374131065
 72       0.000010583162
 73       0.000008831288
 74      -0.000323972370
 75       0.000415745142
 76      -0.000000000000
 77       0.000000000000
 78       0.000000000000
 79      -0.000000000000
 80       0.000000000000
 81      -0.000000000000
 82      -0.000000000000
 83       0.000000000000
 84       0.000000000000
 Sym=     1a
 Ene= -2.14946746261151E+00
 Spin= Alpha
 Occup= 1.000000
  1       0.000000000000
  2       0.000000000000
  3      -0.000000000000
  4      -0.000000000000
  5      -0.000000000000
  6       0.000000000000
  7      -0.000000000000
  8       0.000000000000
  9      -0.000000000000
 10       0.000000000000
 11       0.000000000000
 12       0.330749586438
 13       0.133172867862
 14      -0.028276885974
 15      -0.932273901446
 16      -0.375370353552
 17       0.079703208136
 18      -0.079222845733
 19      -0.031898250013
 20       0.006773020728
 21       0.001558788700
 22       0.000627629830
 23      -0.000133266051
 24      -0.002678095134
 25      -0.001078306678
 26       0.000228958339
 27       0.000630158755
 28       0.000253726742
 29      -0.000053874135
 30       0.000000000000
 31       0.000000000000
 32       0.000000000000
 33       0.000000000000
 34      -0.000000000000
 35      -0.000000000000
 36       0.000000000000
 37      -0.000000000000
 38       0.000000000000
 39      -0.000000000000
 40       0.000000000000
 41       0.000000000000
 42       0.000000000000
 43       0.000000000000
 44      -0.000000000000
 45       0.000000000000
 46      -0.000000000000
 47      -0.000000000000
 48      -0.000000000000
 49       0.000000000000
 50      -0.000000000000
 51       0.000000000000
 52       0.000000000000
 53       0.000000000000
 54       0.000000000000
 55      -0.000606146885
 56      -0.004977647889
 57      -0.002024713801
 58      -0.000046781509
 59      -0.000042230844
 60      -0.003252617815
 61      -0.006118549481
 62      -0.001066120066
 63      -0.008754921656
 64      -0.003561162022
 65      -0.000082280817
 66      -0.000074277950
 67      -0.005720856975
 68      -0.010761592041
 69      -0.000253548992
 70      -0.002082128264
 71      -0.000846928901
 72      -0.000019567893
 73      -0.000017665144
 74      -0.001360555211
 75      -0.002559361128
 76      -0.000000000000
 77      -0.000000000000
 78       0.000000000000
 79       0.000000000000
 80      -0.000000000000
 81      -0.000000000000
 82      -0.000000000000
 83       0.000000000000
 84       0.000000000000
 Sym=     1a
 Ene= -5.15346503951365E-01
 Spin= Alpha
 Occup= 1.000000
  1      -0.000000000659
  2      -0.000000000467
  3       0.000000000067
  4       0.000000002254
  5       0.000000002712
  6       0.000000000418
  7      -0.000000011616
  8      -0.000000001524
  9       0.000000022245
 10      -0.000000005189
 11       0.000000001173
 12       0.000000000000
 13      -0.000000000000
 14      -0.000000000000
 15      -0.000000000000
 16       0.000000000000
 17      -0.000000000000
 18       0.000000000000
 19      -0.000000000000
 20       0.000000000000
 21       0.000000000000
 22      -0.000000000000
 23       0.000000000000
 24      -0.000000000000
 25      -0.000000000000
 26      -0.000000000000
 27       0.000000000000
 28      -0.000000000000
 29       0.000000000000
 30      -0.008180126647
 31      -0.119995844654
 32       0.462917188095
 33       0.077321179592
 34      -0.092343161430
 35      -0.006214579782
 36      -0.091162861615
 37       0.351685975901
 38       0.058742201522
 39      -0.070154654092
 40      -0.004953066661
 41      -0.072657495201
 42       0.280296416232
 43       0.046817988224
 44      -0.055913803418
 45      -0.001775277651
 46      -0.026041896453
 47       0.100463840778
 48       0.016780506256
 49      -0.020040629930
 50      -0.000047778860
 51      -0.000700877542
 52       0.002703831186
 53       0.000451622238
 54      -0.000539363635
 55      -0.000000000000
 56       0.000000000000
 57      -0.000000000000
 58       0.000000000000
 59       0.000000000000
 60      -0.000000000000
 61       0.000000000000
 62      -0.000000000000
 63       0.000000000000
 64       0.000000000000
 65       0.000000000000
 66      -0.000000000000
 67      -0.000000000000
 68      -0.000000000000
 69      -0.000000000000
 70       0.000000000000
 71       0.000000000000
 72       0.000000000000
 73       0.000000000000
 74       0.000000000000
 75       0.000000000000
 76       0.000030598472
 77       0.000261284562
 78      -0.000942153634
 79       0.000482997176
 80      -0.000574180680
 81       0.002428234688
 82      -0.000929731952
 83       0.000014183083
 84       0.000035054469
 Sym=     1a
 Ene= -5.15346489608553E-01
 Spin= Alpha
 Occup= 1.000000
  1      -0.000000000079
  2      -0.000000000056
  3       0.000000000007
  4       0.000000000273
  5       0.000000000324
  6       0.000000000114
  7      -0.000000001686
  8      -0.000000000084
  9       0.000000003556
 10      -0.000000000983
 11       0.000000000159
 12       0.000000000000
 13       0.000000000000
 14      -0.000000000000
 15      -0.000000000000
 16      -0.000000000000
 17       0.000000000000
 18      -0.000000000000
 19       0.000000000000
 20      -0.000000000000
 21       0.000000000000
 22       0.000000000000
 23       0.000000000000
 24       0.000000000000
 25      -0.000000000000
 26      -0.000000000000
 27       0.000000000000
 28       0.000000000000
 29      -0.000000000000
 30      -0.000137502105
 31      -0.322758358681
 32       0.013218746285
 33      -0.251105118629
 34       0.275431568986
 35      -0.000104462585
 36      -0.245204957351
 37       0.010042503030
 38      -0.190768784849
 39       0.209249998764
 40      -0.000083256945
 41      -0.195430251046
 42       0.008003944039
 43      -0.152044200102
 44       0.166773869890
 45      -0.000029840650
 46      -0.070046126741
 47       0.002868767879
 48      -0.054495694878
 49       0.059775103904
 50      -0.000000803087
 51      -0.001885187214
 52       0.000077207686
 53      -0.001466670488
 54       0.001608757883
 55      -0.000000000000
 56       0.000000000000
 57      -0.000000000000
 58       0.000000000000
 59       0.000000000000
 60      -0.000000000000
 61       0.000000000000
 62      -0.000000000000
 63      -0.000000000000
 64       0.000000000000
 65      -0.000000000000
 66      -0.000000000000
 67      -0.000000000000
 68       0.000000000000
 69      -0.000000000000
 70       0.000000000000
 71       0.000000000000
 72       0.000000000000
 73       0.000000000000
 74       0.000000000000
 75       0.000000000000
 76       0.000001153371
 77       0.000625168572
 78      -0.000065682347
 79      -0.001495809405
 80       0.001641155134
 81      -0.000065043286
 82      -0.001717883152
 83       0.000025123652
 84      -0.000001709703
 Sym=     1a
 Ene= -5.15346480969264E-01
 Spin= Alpha
 Occup= 1.000000
  1       0.000000000065
  2       0.000000000046
  3      -0.000000000007
  4      -0.000000000222
  5      -0.000000000265
  6       0.000000000010
  7       0.000000000929
  8       0.000000000188
  9      -0.000000001527
 10       0.000000000342
 11      -0.000000000093
 12      -0.000000000000
 13      -0.000000000000
 14      -0.000000000000
 15       0.000000000000
 16       0.000000000000
 17       0.000000000000
 18      -0.000000000000
 19      -0.000000000000
 20      -0.000000000000
 21      -0.000000000000
 22      -0.000000000000
 23      -0.000000000000
 24       0.000000000000
 25      -0.000000000000
 26       0.000000000000
 27      -0.000000000000
 28      -0.000000000000
 29      -0.000000000000
 30       0.003165284749
 31      -0.353100581011
 32      -0.169429802841
 33       0.199651299757
 34      -0.223622216727
 35       0.002404720213
 36      -0.268256455682
 37      -0.128718673059
 38       0.151678453307
 39      -0.169889562201
 40       0.001916580282
 41      -0.213802483359
 42      -0.102589781290
 43       0.120888905207
 44      -0.135403300681
 45       0.000686940677
 46      -0.076631110596
 47      -0.036770238965
 48       0.043329013198
 49      -0.048531264401
 50       0.000018487964
 51      -0.002062413176
 52      -0.000989616378
 53       0.001166136094
 54      -0.001306146998
 55      -0.000000000000
 56      -0.000000000000
 57      -0.000000000000
 58       0.000000000000
 59       0.000000000000
 60      -0.000000000000
 61       0.000000000000
 62      -0.000000000000
 63       0.000000000000
 64       0.000000000000
 65       0.000000000000
 66      -0.000000000000
 67      -0.000000000000
 68      -0.000000000000
 69      -0.000000000000
 70       0.000000000000
 71       0.000000000000
 72      -0.000000000000
 73       0.000000000000
 74       0.000000000000
 75       0.000000000000
 76      -0.000012413761
 77       0.000760044885
 78       0.000378960701
 79       0.001111696286
 80      -0.001245650909
 81      -0.001159121078
 82      -0.001851613407
 83       0.000026379993
 84      -0.000017218186
 Sym=     1a
 Ene= -2.46782879923444E-01
 Spin= Alpha
 Occup= 1.000000
  1      -0.025258256593
  2      -0.018330729740
  3       0.004858222504
  4       0.078163135686
  5       0.120134577223
  6      -0.035954409371
  7      -0.269503378268
  8      -0.277877330955
  9       0.414859845657
 10       0.547293798054
 11       0.216534881115
 12      -0.000000000000
 13      -0.000000000000
 14      -0.000000000000
 15      -0.000000000000
 16       0.000000000000
 17       0.000000000000
 18       0.000000000000
 19       0.000000000000
 20      -0.000000000000
 21       0.000000000000
 22      -0.000000000000
 23      -0.000000000000
 24       0.000000000000
 25      -0.000000000000
 26      -0.000000000000
 27       0.000000000000
 28      -0.000000000000
 29      -0.000000000000
 30      -0.000000159436
 31       0.000000000127
 32      -0.000000008171
 33       0.000000302354
 34       0.000000273214
 35      -0.000000127315
 36       0.000000000201
 37      -0.000000006476
 38       0.000000241431
 39       0.000000218135
 40      -0.000000139846
 41      -0.000000001424