
                                 *****************
                                 * O   R   C   A *
                                 *****************

           --- An Ab Initio, DFT and Semiempirical electronic structure package ---

                  #######################################################
                  #                        -***-                        #
                  #  Department of molecular theory and spectroscopy    #
                  #              Directorship: Frank Neese              #
                  # Max Planck Institute for Chemical Energy Conversion #
                  #                  D-45470 Muelheim/Ruhr              #
                  #                       Germany                       #
                  #                                                     #
                  #                  All rights reserved                #
                  #                        -***-                        #
                  #######################################################


                         Program Version 4.0.1.2 - RELEASE -


 With contributions from (in alphabetic order):
   Daniel Aravena         : Magnetic Properties
   Michael Atanasov       : Ab Initio Ligand Field Theory
   Ute Becker             : Parallelization
   Martin Brehm           : Molecular dynamics
   Dmytro Bykov           : SCF Hessian
   Vijay G. Chilkuri      : MRCI spin determinant printing
   Dipayan Datta          : RHF DLPNO-CCSD density
   Achintya Kumar Dutta   : EOM-CC, STEOM-CC
   Dmitry Ganyushin       : Spin-Orbit,Spin-Spin,Magnetic field MRCI
   Yang Guo               : DLPNO-NEVPT2, CIM, IAO-localization
   Andreas Hansen         : Spin unrestricted coupled pair/coupled cluster methods
   Lee Huntington         : MR-EOM, pCC
   Robert Izsak           : Overlap fitted RIJCOSX, COSX-SCS-MP3, EOM
   Christian Kollmar      : KDIIS, OOCD, Brueckner-CCSD(T), CCSD density
   Simone Kossmann        : Meta GGA functionals, TD-DFT gradient, OOMP2, MP2 Hessian
   Martin Krupicka        : AUTO-CI
   Dagmar Lenk            : GEPOL surface
   Dimitrios Liakos       : Extrapolation schemes; parallel MDCI
   Dimitrios Manganas     : ROCIS; embedding schemes
   Dimitrios Pantazis     : SARC Basis sets
   Taras Petrenko         : DFT Hessian,TD-DFT gradient, ASA, ECA, R-Raman, ABS, FL, XAS/XES, NRVS
   Peter Pinski           : DLPNO-MP2
   Christoph Reimann      : Effective Core Potentials
   Marius Retegan         : Local ZFS, SOC
   Christoph Riplinger    : Optimizer, TS searches, QM/MM, DLPNO-CCSD(T), (RO)-DLPNO pert. Triples
   Tobias Risthaus        : Range-separated hybrids, TD-DFT gradient, RPA, STAB
   Michael Roemelt        : Restricted open shell CIS
   Masaaki Saitow         : Open-shell DLPNO
   Barbara Sandhoefer     : DKH picture change effects
   Kantharuban Sivalingam : CASSCF convergence, NEVPT2, FIC-MRCI
   Georgi Stoychev        : AutoAux
   Boris Wezisla          : Elementary symmetry handling
   Frank Wennmohs         : Technical directorship


 We gratefully acknowledge several colleagues who have allowed us to
 interface, adapt or use parts of their codes:
   Stefan Grimme, W. Hujo, H. Kruse,             : VdW corrections, initial TS optimization,
                  C. Bannwarth                     DFT functionals, gCP, sTDA/sTD-DF
   Ed Valeev                                     : LibInt (2-el integral package), F12 methods
   Garnet Chan, S. Sharma, J. Yang, R. Olivares  : DMRG
   Ulf Ekstrom                                   : XCFun DFT Library
   Mihaly Kallay                                 : mrcc  (arbitrary order and MRCC methods)
   Andreas Klamt, Michael Diedenhofen            : otool_cosmo (COSMO solvation model)
   Jiri Pittner, Ondrej Demel                    : Mk-CCSD
   Frank Weinhold                                : gennbo (NPA and NBO analysis)
   Christopher J. Cramer and Donald G. Truhlar   : smd solvation model


 Your calculation uses the libint2 library for the computation of 2-el integrals
 For citations please refer to: http://libint.valeyev.net

 This ORCA versions uses:
   CBLAS   interface :  Fast vector & matrix operations
   LAPACKE interface :  Fast linear algebra routines
   SCALAPACK package :  Parallel linear algebra routines




*****************************************
The coordinations will be read from file: ../../../../chem_database/Al.xyz
*****************************************


Your calculation utilizes the basis: def2-QZVP
   F. Weigend and R. Ahlrichs, Phys. Chem. Chem. Phys. 7, 3297 (2005).

================================================================================
                                        WARNINGS
                       Please study these warnings very carefully!
================================================================================

Warning: TCutStore was < 0. Adjusted to Thresh (uncritical)

WARNING: your system is open-shell and RHF/RKS was chosen
  ===> : WILL SWITCH to UHF/UKS


INFO   : the flag for use of LIBINT has been found!

================================================================================
                                       INPUT FILE
================================================================================
NAME = mol.inp
|  1> # ================================================================
|  2> # Orca input file
|  3> # ================================================================
|  4> ! HF def2-QZVP VeryTightSCF UseSym
|  5> 
|  6> ! PAL4
|  7> 
|  8> %scf
|  9>   STABPerform true
| 10> #  STABRestartUHFifUnstable true
| 11> end
| 12> 
| 13> 
| 14> 
| 15> * xyzfile 0 2 ../../../../chem_database/Al.xyz
| 16> 
| 17>                          ****END OF INPUT****
================================================================================

------------------------------------------------------------------------------
                            SYMMETRY HANDLING SETUP
------------------------------------------------------------------------------

------------------
SYMMETRY DETECTION
------------------
Preparing Data                    ... done
Detection Threshold:    SymThresh ... 1.0000e-04

Point Group will now be determined:
Moving molecule to center of mass ... done

POINT GROUP                       ... Kh

The coordinates will now be cleaned:
Structure cleanup requested       ... yes
Selected point group              ... Kh
Cleaning Tolerance      SymThresh ... 1.0000e-04

Cleaning coordinates              ... done

-----------------------------------------------
SYMMETRY-PERFECTED CARTESIAN COORDINATES (A.U.)
-----------------------------------------------
Warning (ORCA_SYM): Coordinates were not cleaned so far!

------------------
SYMMETRY REDUCTION
------------------
ORCA supports only abelian point groups.
It is now checked, if the determined point group is supported:
Point Group ( Kh    ) is          ... NOT supported
Reducing to abelian subgroup      ... D2h

(Re)building abelian point group:
Creating Character Table          ... done
Making direct product table       ... done
Constructing symmetry operations  ... done
Creating atom transfer table      ... done
Creating asymmetric unit          ... done

----------------------
ASYMMETRIC UNIT IN D2h
----------------------
  #  AT     MASS              COORDS (A.U.)             BAS
   0 Al  26.9820   0.00000000   0.00000000   0.00000000   0

----------------------
SYMMETRY ADAPTED BASIS
----------------------
The coefficients for the symmetry adapted linear combinations (SALCS)
of basis functions will now be computed:
Number of basis functions         ...    70
Preparing memory                  ... done
Constructing Gamma(red)           ... done
Reducing Gamma(red)               ... done
Constructing SALCs                ... done
Checking SALC integrity           ... nothing suspicious
Normalizing SALCs                 ... done

Storing the symmetry object:
Symmetry file                     ... mol.sym.tmp
Writing symmetry information      ... done

                       ****************************
                       * Single Point Calculation *
                       ****************************

---------------------------------
CARTESIAN COORDINATES (ANGSTROEM)
---------------------------------
  Al     0.000000    0.000000    0.000000

----------------------------
CARTESIAN COORDINATES (A.U.)
----------------------------
  NO LB      ZA    FRAG     MASS         X           Y           Z
   0 Al   13.0000    0    26.982    0.000000    0.000000    0.000000

--------------------------------
INTERNAL COORDINATES (ANGSTROEM)
--------------------------------
 Al     0   0   0     0.000000000000     0.00000000     0.00000000

---------------------------
INTERNAL COORDINATES (A.U.)
---------------------------
 Al     0   0   0     0.000000000000     0.00000000     0.00000000

---------------------
BASIS SET INFORMATION
---------------------
There are 1 groups of distinct atoms

 Group   1 Type Al  : 20s14p4d2f1g contracted to 9s6p4d2f1g pattern {1031111111/821111/1111/11/1}

Atom   0Al   basis set group =>   1


           ************************************************************
           *        Program running with 4 parallel MPI-processes     *
           *              working on a common directory               *
           ************************************************************
------------------------------------------------------------------------------
                           ORCA GTO INTEGRAL CALCULATION
------------------------------------------------------------------------------

                         BASIS SET STATISTICS AND STARTUP INFO

 # of primitive gaussian shells          ...   41
 # of primitive gaussian functions       ...  105
 # of contracted shells                  ...   22
 # of contracted basis functions         ...   70
 Highest angular momentum                ...    4
 Maximum contraction depth               ...   10
 Integral package used                   ... LIBINT
 Integral threshhold            Thresh   ...  1.000e-12
 Primitive cut-off              TCut     ...  1.000e-14


------------------------------ INTEGRAL EVALUATION ----------------------------


 * One electron integrals 
 Pre-screening matrix                    ... done
 Shell pair data                         ... done (   0.000 sec)



           ************************************************************
           *        Program running with 4 parallel MPI-processes     *
           *              working on a common directory               *
           ************************************************************
-------------------------------------------------------------------------------
                                 ORCA SCF
-------------------------------------------------------------------------------

------------
SCF SETTINGS
------------
Hamiltonian:
 Ab initio Hamiltonian  Method          .... Hartree-Fock(GTOs)


General Settings:
 Integral files         IntName         .... mol
 Hartree-Fock type      HFTyp           .... UHF
 Total Charge           Charge          ....    0
 Multiplicity           Mult            ....    2
 Number of Electrons    NEL             ....   13
 Basis Dimension        Dim             ....   70
 Nuclear Repulsion      ENuc            ....      0.0000000000 Eh

 Symmetry handling      UseSym         .... ON
 Point group                           .... D2h
 Used point group                      .... D2h
 Number of irreps                      .... 8
   Irrep   Ag has   20 symmetry adapted basis functions (ofs=   0)
   Irrep  B1g has    6 symmetry adapted basis functions (ofs=  20)
   Irrep  B2g has    6 symmetry adapted basis functions (ofs=  26)
   Irrep  B3g has    6 symmetry adapted basis functions (ofs=  32)
   Irrep   Au has    2 symmetry adapted basis functions (ofs=  38)
   Irrep  B1u has   10 symmetry adapted basis functions (ofs=  40)
   Irrep  B2u has   10 symmetry adapted basis functions (ofs=  50)
   Irrep  B3u has   10 symmetry adapted basis functions (ofs=  60)

Convergence Acceleration:
 DIIS                   CNVDIIS         .... on
   Start iteration      DIISMaxIt       ....    12
   Startup error        DIISStart       ....  0.200000
   # of expansion vecs  DIISMaxEq       ....     5
   Bias factor          DIISBfac        ....   1.050
   Max. coefficient     DIISMaxC        ....  10.000
 Newton-Raphson         CNVNR           .... off
 SOSCF                  CNVSOSCF        .... off
 Level Shifting         CNVShift        .... on
   Level shift para.    LevelShift      ....    0.2500
   Turn off err/grad.   ShiftErr        ....    0.0010
 Zerner damping         CNVZerner       .... off
 Static damping         CNVDamp         .... on
   Fraction old density DampFac         ....    0.7000
   Max. Damping (<1)    DampMax         ....    0.9800
   Min. Damping (>=0)   DampMin         ....    0.0000
   Turn off err/grad.   DampErr         ....    0.1000
 Fernandez-Rico         CNVRico         .... off

SCF Procedure:
 Maximum # iterations   MaxIter         ....   125
 SCF integral mode      SCFMode         .... Direct
   Integral package                     .... LIBINT
 Reset frequeny         DirectResetFreq ....    20
 Integral Threshold     Thresh          ....  1.000e-12 Eh
 Primitive CutOff       TCut            ....  1.000e-14 Eh

Convergence Tolerance:
 Convergence Check Mode ConvCheckMode   .... Total+1el-Energy
 Convergence forced     ConvForced      .... 0
 Energy Change          TolE            ....  1.000e-09 Eh
 1-El. energy change                    ....  1.000e-06 Eh
 DIIS Error             TolErr          ....  1.000e-08


Diagonalization of the overlap matrix:
Smallest eigenvalue                        ... 3.290e-03
Time for diagonalization                   ...    0.008 sec
Threshold for overlap eigenvalues          ... 1.000e-08
Number of eigenvalues below threshold      ... 0
Time for construction of square roots      ...    0.001 sec
Producing symmetrization matrix            ... done (   0.000 sec)
Total time needed                          ...    0.009 sec

-------------------
DFT GRID GENERATION
-------------------

General Integration Accuracy     IntAcc      ...  4.340
Radial Grid Type                 RadialGrid  ... Gauss-Chebyshev
Angular Grid (max. acc.)         AngularGrid ... Lebedev-110
Angular grid pruning method      GridPruning ... 3 (G Style)
Weight generation scheme         WeightScheme... Becke
Basis function cutoff            BFCut       ...    1.0000e-12
Integration weight cutoff        WCut        ...    1.0000e-14
Grids for H and He will be reduced by one unit

# of grid points (after initial pruning)     ...   1866 (   0.0 sec)
# of grid points (after weights+screening)   ...   1866 (   0.0 sec)
Grid point division into batches done        ...    0.0 sec
Reduced shell lists constructed in    0.0 sec

Total number of grid points                  ...     1866
Total number of batches                      ...       30
Average number of points per batch           ...       62
Average number of grid points per atom       ...     1866
Average number of shells per batch           ...    12.22 (55.56%)
Average number of basis functions per batch  ...    48.67 (69.52%)
Average number of large shells per batch     ...    11.33 (92.73%)
Average number of large basis fcns per batch ...    46.00 (94.52%)
Maximum spatial batch extension              ...  21.07, 38.78, 38.78 au
Average spatial batch extension              ...   4.64,  6.19,  7.74 au

Time for grid setup =    0.019 sec

------------------------------
INITIAL GUESS: MODEL POTENTIAL
------------------------------
Loading Hartree-Fock densities                     ... done
Calculating cut-offs                               ... done
Setting up the integral package                    ... done
Initializing the effective Hamiltonian             ... done
Starting the Coulomb interaction                   ... done (   0.0 sec)
Reading the grid                                   ... done
Mapping shells                                     ... done
Starting the XC term evaluation                    ... done (   0.0 sec)
done (   0.0 sec)
Diagonalizing the Hamiltonian                      ... done (   0.0 sec)
Back transforming the eigenvectors                 ... done (   0.0 sec)
Now organizing SCF variables                       ... done
The symmetry of the initial guess is 2-B3u
Irrep occupations for operator 0
    Ag -    3
   B1g -    0
   B2g -    0
   B3g -    0
    Au -    0
   B1u -    1
   B2u -    1
   B3u -    2
Irrep occupations for operator 1
    Ag -    3
   B1g -    0
   B2g -    0
   B3g -    0
    Au -    0
   B1u -    1
   B2u -    1
   B3u -    1
                      ------------------
                      INITIAL GUESS DONE (   0.2 sec)
                      ------------------
--------------
SCF ITERATIONS
--------------
ITER       Energy         Delta-E        Max-DP      RMS-DP      [F,P]     Damp
               ***  Starting incremental Fock matrix formation  ***
  0   -241.8599759617   0.000000000000 0.01002513  0.00037915  0.4848278 0.7000
  1   -241.8653109953  -0.005335033553 0.00764239  0.00030586  0.3423367 0.7000
  2   -241.8693469107  -0.004035915409 0.00560855  0.00023557  0.2416425 0.7000
                               ***Turning on DIIS***
  3   -241.8723535957  -0.003006685016 0.00410655  0.00018057  0.1707515 0.7000
  4   -241.8663660714   0.005987524310 0.00321550  0.00015314  0.1207764 0.7000
  5   -241.8739078185  -0.007541747096 0.00945933  0.00040921  0.0850493 0.0000
  6   -241.8806207453  -0.006712926764 0.00249146  0.00005832  0.0011520 0.0000
  7   -241.8809558914  -0.000335146135 0.00424480  0.00007963  0.0008513 0.0000
  8   -241.8802730736   0.000682817773 0.00262242  0.00004758  0.0004624 0.0000
  9   -241.8803360764  -0.000063002777 0.00034361  0.00000868  0.0001140 0.0000
 10   -241.8806082717  -0.000272195238 0.00012965  0.00000306  0.0000284 0.0000
 11   -241.8806310805  -0.000022808880 0.00005905  0.00000142  0.0000090 0.0000
 12   -241.8806652889  -0.000034208329 0.00001803  0.00000031  0.0000016 0.0000
 13   -241.8806700413  -0.000004752397 0.00000322  0.00000006  0.0000002 0.0000
 14   -241.8806705590  -0.000000517735 0.00000070  0.00000002  0.0000001 0.0000
                            ***DIIS convergence achieved***

               *****************************************************
               *                     SUCCESS                       *
               *           SCF CONVERGED AFTER  15 CYCLES          *
               *****************************************************


------------------------------------------------------------------------------
                          SCF STABILITY ANALYSIS                              
------------------------------------------------------------------------------


                       ****Iteration    0****

   Memory handling for direct AO based CIS:
   Memory per vector needed      ...     1 MB
   Memory needed                 ...     1 MB
   Memory available              ...  1024 MB
   Number of vectors per batch   ...  1024
   Number of batches             ...     1
   Time for densities:     0.000
   Using LibInt in JK Direct
   Time for J+K (Direct):     0.393
   Time for Sigma-Completion:     0.001
   Lowest Energy          :     0.013703083382
   Maximum Energy change  :     0.165299846001 (vector 2)
   Maximum residual norm  :     0.005638081817

                       ****Iteration    1****
   Time for densities:     0.000
   Using LibInt in JK Direct
   Time for J+K (Direct):     0.282
   Time for Sigma-Completion:     0.001
   Lowest Energy          :     0.000441362379
   Maximum Energy change  :     0.013261721003 (vector 1)
   Maximum residual norm  :     0.000381851656

                       ****Iteration    2****
   Time for densities:     0.000
   Using LibInt in JK Direct
   Time for J+K (Direct):     0.281
   Time for Sigma-Completion:     0.001
   Lowest Energy          :     0.000225243469
   Maximum Energy change  :     0.001486625272 (vector 2)
   Maximum residual norm  :     0.000183671219

                       ****Iteration    3****
   Time for densities:     0.000
   Using LibInt in JK Direct
   Time for J+K (Direct):     0.288
   Time for Sigma-Completion:     0.001
   Lowest Energy          :     0.000223538821
   Maximum Energy change  :     0.000894123252 (vector 2)
   Maximum residual norm  :     0.000986673018

                       ****Iteration    4****
   Time for densities:     0.000
   Using LibInt in JK Direct
   Time for J+K (Direct):     0.175
   Time for Sigma-Completion:     0.000
   Lowest Energy          :     0.000223538821
   Maximum Energy change  :     0.016408276719 (vector 2)
   Maximum residual norm  :     0.006711193713

                       ****Iteration    5****
   Time for densities:     0.000
   Using LibInt in JK Direct
   Time for J+K (Direct):     0.175
   Time for Sigma-Completion:     0.000
   Lowest Energy          :     0.000223538821
   Maximum Energy change  :     0.004008495594 (vector 2)
   Maximum residual norm  :     0.000573293372

                       ****Iteration    6****
   Time for densities:     0.000
   Using LibInt in JK Direct
   Time for J+K (Direct):     0.175
   Time for Sigma-Completion:     0.001
   Lowest Energy          :     0.000223538821
   Maximum Energy change  :     0.000154232379 (vector 2)
   Maximum residual norm  :     0.000022678108

      *** CONVERGENCE OF RESIDUAL NORM REACHED ***

----------------------------- 
SCF STABILITY ANALYSIS RESULT 
----------------------------- 

UHF/UKS->UHF/UKS - singlet - internal

   Root    Eigenvalue (au) 
     0       0.000224 
     1       0.000224 
     2       0.129515 

Stability Analysis indicates a stable HF/KS wave function.


Total time for performing the stability analysis:     1.781sec


----------------
TOTAL SCF ENERGY
----------------

Total Energy       :         -241.88067066 Eh           -6581.90767 eV

Components:
Nuclear Repulsion  :            0.00000000 Eh               0.00000 eV
Electronic Energy  :         -241.88067066 Eh           -6581.90767 eV
One Electron Energy:         -336.63735511 Eh           -9160.36814 eV
Two Electron Energy:           94.75668446 Eh            2578.46047 eV

Virial components:
Potential Energy   :         -483.76132893 Eh          -13163.81500 eV
Kinetic Energy     :          241.88065828 Eh            6581.90733 eV
Virial Ratio       :            2.00000005


---------------
SCF CONVERGENCE
---------------

  Last Energy change         ...   -9.6473e-08  Tolerance :   1.0000e-09
  Last MAX-Density change    ...    2.5944e-07  Tolerance :   1.0000e-08
  Last RMS-Density change    ...    7.6256e-09  Tolerance :   1.0000e-09
  Last DIIS Error            ...    1.8316e-08  Tolerance :   1.0000e-08

             **** THE GBW FILE WAS UPDATED (mol.gbw) ****
             **** DENSITY FILE WAS UPDATED (mol.scfp.tmp) ****
             **** ENERGY FILE WAS UPDATED (mol.en.tmp) ****
----------------------
UHF SPIN CONTAMINATION
----------------------

Expectation value of <S**2>     :     0.770526
Ideal value S*(S+1) for S=0.5   :     0.750000
Deviation                       :     0.020526

----------------
ORBITAL ENERGIES
----------------
                 SPIN UP ORBITALS
  NO   OCC          E(Eh)            E(eV)    Irrep 
   0   1.0000     -58.500863     -1591.8894    1-Ag
   1   1.0000      -4.910653      -133.6256    2-Ag
   2   1.0000      -3.225124       -87.7601    1-B3u
   3   1.0000      -3.217818       -87.5613    1-B2u
   4   1.0000      -3.217818       -87.5613    1-B1u
   5   1.0000      -0.425491       -11.5782    3-Ag
   6   1.0000      -0.218488        -5.9454    2-B3u
   7   0.0000       0.016947         0.4612    2-B2u
   8   0.0000       0.016947         0.4612    2-B1u
   9   0.0000       0.129665         3.5284    4-Ag
  10   0.0000       0.132547         3.6068    3-B3u
  11   0.0000       0.155141         4.2216    3-B1u
  12   0.0000       0.155141         4.2216    3-B2u
  13   0.0000       0.189747         5.1633    5-Ag
  14   0.0000       0.191739         5.2175    1-B1g
  15   0.0000       0.191739         5.2175    1-B2g
  16   0.0000       0.201354         5.4791    6-Ag
  17   0.0000       0.201354         5.4791    1-B3g
  18   0.0000       0.578683        15.7468    4-B2u
  19   0.0000       0.578683        15.7468    4-B1u
  20   0.0000       0.583482        15.8774    1-Au
  21   0.0000       0.583482        15.8774    4-B3u
  22   0.0000       0.584622        15.9084    7-Ag
  23   0.0000       0.585585        15.9346    5-B2u
  24   0.0000       0.585585        15.9346    5-B1u
  25   0.0000       0.585619        15.9355    2-B2g
  26   0.0000       0.585619        15.9355    2-B1g
  27   0.0000       0.586037        15.9469    5-B3u
  28   0.0000       0.589727        16.0473    2-B3g
  29   0.0000       0.589727        16.0473    8-Ag
  30   0.0000       0.623967        16.9790    6-B3u
  31   0.0000       0.631819        17.1927    6-B1u
  32   0.0000       0.631819        17.1927    6-B2u
  33   0.0000       0.724253        19.7079    9-Ag
  34   0.0000       1.447828        39.3974    3-B3g
  35   0.0000       1.447828        39.3974   10-Ag
  36   0.0000       1.458965        39.7005    3-B1g
  37   0.0000       1.458965        39.7005    3-B2g
  38   0.0000       1.462741        39.8032   11-Ag
  39   0.0000       1.718217        46.7551    7-B2u
  40   0.0000       1.718217        46.7551    7-B1u
  41   0.0000       1.727368        47.0041    7-B3u
  42   0.0000       1.727368        47.0041    2-Au
  43   0.0000       1.732851        47.1533    8-B1u
  44   0.0000       1.732851        47.1533    8-B2u
  45   0.0000       1.732977        47.1567   12-Ag
  46   0.0000       1.732977        47.1567    4-B3g
  47   0.0000       1.734674        47.2029    8-B3u
  48   0.0000       1.742794        47.4238    4-B2g
  49   0.0000       1.742794        47.4238    4-B1g
  50   0.0000       1.749853        47.6159    5-B3g
  51   0.0000       1.749853        47.6159   13-Ag
  52   0.0000       1.754101        47.7315    5-B1g
  53   0.0000       1.754101        47.7315    5-B2g
  54   0.0000       1.755519        47.7701   14-Ag
  55   0.0000       2.276273        61.9405    9-B1u
  56   0.0000       2.276273        61.9405    9-B2u
  57   0.0000       2.284325        62.1597    9-B3u
  58   0.0000       3.312675        90.1425   15-Ag
  59   0.0000       4.669980       127.0766    6-B3g
  60   0.0000       4.669980       127.0766   16-Ag
  61   0.0000       4.679288       127.3299    6-B1g
  62   0.0000       4.679288       127.3299    6-B2g
  63   0.0000       4.682491       127.4171   17-Ag
  64   0.0000       8.006341       217.8636   10-B1u
  65   0.0000       8.006341       217.8636   10-B2u
  66   0.0000       8.012680       218.0361   10-B3u
  67   0.0000      12.752619       347.0164   18-Ag
  68   0.0000      46.647029      1269.3302   19-Ag
  69   0.0000     256.668052      6984.2928   20-Ag

                 SPIN DOWN ORBITALS
  NO   OCC          E(Eh)            E(eV)    Irrep 
   0   1.0000     -58.497797     -1591.8060    1-Ag
   1   1.0000      -4.907217      -133.5322    2-Ag
   2   1.0000      -3.216252       -87.5187    1-B1u
   3   1.0000      -3.216252       -87.5187    1-B2u
   4   1.0000      -3.206899       -87.2642    1-B3u
   5   1.0000      -0.363315        -9.8863    3-Ag
   6   0.0000       0.023232         0.6322    2-B2u
   7   0.0000       0.023232         0.6322    2-B1u
   8   0.0000       0.053465         1.4548    2-B3u
   9   0.0000       0.139497         3.7959    4-Ag
  10   0.0000       0.158212         4.3052    3-B1u
  11   0.0000       0.158212         4.3052    3-B2u
  12   0.0000       0.186837         5.0841    3-B3u
  13   0.0000       0.203059         5.5255    5-Ag
  14   0.0000       0.203059         5.5255    1-B3g
  15   0.0000       0.222251         6.0478    1-B1g
  16   0.0000       0.222251         6.0478    1-B2g
  17   0.0000       0.230416         6.2699    6-Ag
  18   0.0000       0.579199        15.7608    4-B2u
  19   0.0000       0.579199        15.7608    4-B1u
  20   0.0000       0.590296        16.0628    7-Ag
  21   0.0000       0.590296        16.0628    2-B3g
  22   0.0000       0.598398        16.2832    1-Au
  23   0.0000       0.598398        16.2832    4-B3u
  24   0.0000       0.609603        16.5881    5-B1u
  25   0.0000       0.609603        16.5881    5-B2u
  26   0.0000       0.614335        16.7169    5-B3u
  27   0.0000       0.617652        16.8072    2-B1g
  28   0.0000       0.617652        16.8072    2-B2g
  29   0.0000       0.628291        17.0967    8-Ag
  30   0.0000       0.635452        17.2915    6-B1u
  31   0.0000       0.635452        17.2915    6-B2u
  32   0.0000       0.668051        18.1786    6-B3u
  33   0.0000       0.736017        20.0280    9-Ag
  34   0.0000       1.447940        39.4005    3-B3g
  35   0.0000       1.447940        39.4005   10-Ag
  36   0.0000       1.471096        40.0306    3-B1g
  37   0.0000       1.471096        40.0306    3-B2g
  38   0.0000       1.479761        40.2664   11-Ag
  39   0.0000       1.717468        46.7347    7-B1u
  40   0.0000       1.717468        46.7347    7-B2u
  41   0.0000       1.732192        47.1353    4-B3g
  42   0.0000       1.732192        47.1353   12-Ag
  43   0.0000       1.739696        47.3395    2-Au
  44   0.0000       1.739696        47.3395    7-B3u
  45   0.0000       1.751638        47.6645    4-B1g
  46   0.0000       1.751638        47.6645    4-B2g
  47   0.0000       1.753548        47.7165    8-B1u
  48   0.0000       1.753548        47.7165    8-B2u
  49   0.0000       1.758278        47.8452    8-B3u
  50   0.0000       1.765971        48.0545    5-B3g
  51   0.0000       1.765971        48.0545   13-Ag
  52   0.0000       1.774768        48.2939    5-B1g
  53   0.0000       1.774768        48.2939    5-B2g
  54   0.0000       1.777736        48.3747   14-Ag
  55   0.0000       2.278337        61.9967    9-B2u
  56   0.0000       2.278337        61.9967    9-B1u
  57   0.0000       2.308033        62.8048    9-B3u
  58   0.0000       3.318340        90.2966   15-Ag
  59   0.0000       4.670110       127.0802    6-B3g
  60   0.0000       4.670110       127.0802   16-Ag
  61   0.0000       4.683241       127.4375    6-B1g
  62   0.0000       4.683241       127.4375    6-B2g
  63   0.0000       4.687834       127.5624   17-Ag
  64   0.0000       8.007695       217.9004   10-B1u
  65   0.0000       8.007695       217.9004   10-B2u
  66   0.0000       8.025550       218.3863   10-B3u
  67   0.0000      12.755358       347.0909   18-Ag
  68   0.0000      46.649034      1269.3848   19-Ag
  69   0.0000     256.668667      6984.3095   20-Ag

                    ********************************
                    * MULLIKEN POPULATION ANALYSIS *
                    ********************************

--------------------------------------------
MULLIKEN ATOMIC CHARGES AND SPIN POPULATIONS
--------------------------------------------
   0 Al:    0.000000    1.000000
Sum of atomic charges         :    0.0000000
Sum of atomic spin populations:    1.0000000

-----------------------------------------------------
MULLIKEN REDUCED ORBITAL CHARGES AND SPIN POPULATIONS
-----------------------------------------------------
CHARGE
  0 Als       :     5.989593  s :     5.989593
      pz      :     1.999999  p :     6.999941
      px      :     2.999943
      py      :     1.999999
      dz2     :     0.002602  d :     0.010406
      dxz     :     0.000000
      dyz     :     0.000000
      dx2y2   :     0.007805
      dxy     :     0.000000
      f0      :     0.000000  f :     0.000059
      f+1     :     0.000022
      f-1     :     0.000000
      f+2     :     0.000000
      f-2     :     0.000000
      f+3     :     0.000036
      f-3     :     0.000001
      g0      :     0.000000  g :     0.000001
      g+1     :     0.000000
      g-1     :     0.000000
      g+2     :     0.000000
      g-2     :     0.000000
      g+3     :     0.000000
      g-3     :     0.000000
      g+4     :     0.000000
      g-4     :     0.000000

SPIN
  0 Als       :    -0.002069  s :    -0.002069
      pz      :     0.000000  p :     0.999945
      px      :     0.999944
      py      :     0.000000
      dz2     :     0.000517  d :     0.002069
      dxz     :     0.000000
      dyz     :    -0.000000
      dx2y2   :     0.001552
      dxy     :    -0.000000
      f0      :    -0.000000  f :     0.000055
      f+1     :     0.000021
      f-1     :    -0.000000
      f+2     :    -0.000000
      f-2     :     0.000000
      f+3     :     0.000035
      f-3     :    -0.000000
      g0      :    -0.000000  g :    -0.000001
      g+1     :     0.000000
      g-1     :     0.000000
      g+2     :    -0.000000
      g-2     :    -0.000000
      g+3     :     0.000000
      g-3     :     0.000000
      g+4     :    -0.000000
      g-4     :     0.000000


                     *******************************
                     * LOEWDIN POPULATION ANALYSIS *
                     *******************************

-------------------------------------------
LOEWDIN ATOMIC CHARGES AND SPIN POPULATIONS
-------------------------------------------
   0 Al:    0.000000    1.000000

----------------------------------------------------
LOEWDIN REDUCED ORBITAL CHARGES AND SPIN POPULATIONS
----------------------------------------------------
CHARGE
  0 Als       :     5.989593  s :     5.989593
      pz      :     1.999999  p :     6.999941
      px      :     2.999943
      py      :     1.999999
      dz2     :     0.002602  d :     0.010406
      dxz     :     0.000000
      dyz     :     0.000000
      dx2y2   :     0.007805
      dxy     :     0.000000
      f0      :     0.000000  f :     0.000059
      f+1     :     0.000022
      f-1     :     0.000000
      f+2     :     0.000000
      f-2     :     0.000000
      f+3     :     0.000036
      f-3     :     0.000001
      g0      :     0.000000  g :     0.000001
      g+1     :     0.000000
      g-1     :     0.000000
      g+2     :     0.000000
      g-2     :     0.000000
      g+3     :     0.000000
      g-3     :     0.000000
      g+4     :     0.000000
      g-4     :     0.000000

SPIN
  0 Als       :    -0.002069  s :    -0.002069
      pz      :     0.000000  p :     0.999945
      px      :     0.999944
      py      :     0.000000
      dz2     :     0.000517  d :     0.002069
      dxz     :     0.000000
      dyz     :    -0.000000
      dx2y2   :     0.001552
      dxy     :    -0.000000
      f0      :    -0.000000  f :     0.000055
      f+1     :     0.000021
      f-1     :    -0.000000
      f+2     :    -0.000000
      f-2     :     0.000000
      f+3     :     0.000035
      f-3     :    -0.000000
      g0      :    -0.000000  g :    -0.000001
      g+1     :     0.000000
      g-1     :     0.000000
      g+2     :    -0.000000
      g-2     :    -0.000000
      g+3     :     0.000000
      g-3     :     0.000000
      g+4     :    -0.000000
      g-4     :     0.000000


                      *****************************
                      * MAYER POPULATION ANALYSIS *
                      *****************************

  NA   - Mulliken gross atomic population
  ZA   - Total nuclear charge
  QA   - Mulliken gross atomic charge
  VA   - Mayer's total valence
  BVA  - Mayer's bonded valence
  FA   - Mayer's free valence

  ATOM       NA         ZA         QA         VA         BVA        FA
  0 Al    13.0000    13.0000     0.0000     1.0411     0.0000     1.0411

  Mayer bond orders larger than 0.1


-------
TIMINGS
-------

Total SCF time: 0 days 0 hours 0 min 5 sec 

Total time                  ....       5.355 sec
Sum of individual times     ....       5.332 sec  ( 99.6%)

Fock matrix formation       ....       3.356 sec  ( 62.7%)
Diagonalization             ....       0.020 sec  (  0.4%)
Density matrix formation    ....       0.002 sec  (  0.0%)
Population analysis         ....       0.002 sec  (  0.0%)
Initial guess               ....       0.145 sec  (  2.7%)
Orbital Transformation      ....       0.000 sec  (  0.0%)
Orbital Orthonormalization  ....       0.000 sec  (  0.0%)
DIIS solution               ....       0.007 sec  (  0.1%)
SCF Stability Analysis      ....       1.781 sec  ( 33.3%)

-------------------------   --------------------
FINAL SINGLE POINT ENERGY      -241.880670655468
-------------------------   --------------------


                            ***************************************
                            *     ORCA property calculations      *
                            ***************************************

                                    ---------------------
                                    Active property flags
                                    ---------------------
   (+) Dipole Moment


------------------------------------------------------------------------------
                       ORCA ELECTRIC PROPERTIES CALCULATION
------------------------------------------------------------------------------

Dipole Moment Calculation                       ... on
Quadrupole Moment Calculation                   ... off
Polarizability Calculation                      ... off
GBWName                                         ... mol.gbw
Electron density file                           ... mol.scfp.tmp
The origin for moment calculation is the CENTER OF MASS  = ( 0.000000,  0.000000  0.000000)

-------------
DIPOLE MOMENT
-------------
                                X             Y             Z
Electronic contribution:     -0.00000       0.00000       0.00000
Nuclear contribution   :      0.00000       0.00000       0.00000
                        -----------------------------------------
Total Dipole Moment    :     -0.00000       0.00000       0.00000
                        -----------------------------------------
Magnitude (a.u.)       :      0.00000
Magnitude (Debye)      :      0.00000


Timings for individual modules:

Sum of individual times         ...        6.031 sec (=   0.101 min)
GTO integral calculation        ...        0.457 sec (=   0.008 min)   7.6 %
SCF iterations                  ...        5.574 sec (=   0.093 min)  92.4 %
                             ****ORCA TERMINATED NORMALLY****
TOTAL RUN TIME: 0 days 0 hours 0 minutes 6 seconds 376 msec
