[Molden Format]
[Title]
 Molden file created by orca_2mkl for BaseName=mol

[Atoms] AU
Al   1  13          0.0000000000         0.0000000000         0.0000000000 
[GTO]
  1 0
s  10 1.0 
   754550.7826500000         0.2885549308
   112999.3892200000         0.5399985348
    25715.8317590000         0.9352537438
     7283.6030283000         1.5287409836
     2376.0008796000         2.3809458175
      857.6546808700         3.5160192668
      334.3892259800         4.8229304425
      138.4850473100         5.8256578796
       60.1503688080         5.6304835832
       27.1276108600         3.5605695642
s   3 1.0 
      225.3650006500         1.1003903743
       69.3419681240         3.9143780718
       26.6193357120         6.5448095230
s   1 1.0 
       12.3494206710         4.6951019903
s   1 1.0 
        4.5878785994         2.2341844784
s   1 1.0 
        2.0571338103         1.2242130334
s   1 1.0 
        0.9086454940         0.6632938188
s   1 1.0 
        0.2422698804         0.2461130604
s   1 1.0 
        0.1124813687         0.1384269138
s   1 1.0 
        0.0481564928         0.0732657888
p   8 1.0 
     1489.6119522000         2.9398065797
      353.0139926700         4.2179097916
      114.4076406900         5.5625325982
       43.3121861110         6.4495646725
       18.0273222160         6.3705166100
        7.9675432403         4.9033574883
        3.6090399541         2.7131925215
        1.6456081630         0.9813026535
p   2 1.0 
       34.7311874890         3.5776413187
        1.2553083630        -1.8977574755
p   1 1.0 
        0.7363553428         0.9722979963
p   1 1.0 
        0.2468646556         0.2480354361
p   1 1.0 
        0.0948219718         0.0750025995
p   1 1.0 
        0.0362141657         0.0225184344
d   1 1.0 
        1.9700000000         9.3386904344
d   1 1.0 
        0.4370000000         0.6695956109
d   1 1.0 
        0.1950000000         0.1631288045
d   1 1.0 
        0.0800000000         0.0343065907
f   1 1.0 
        0.1540000000         0.0847074681
f   1 1.0 
        0.4010000000         0.7295833556
g   1 1.0 
        0.3570000000         0.3875315290

[5D]
[9G]
[MO]
 Sym=     1a
 Ene= -5.85008630471641E+01
 Spin= Alpha
 Occup= 1.000000
  1      -0.845147892585
  2      -0.002978352959
  3      -0.185485258386
  4      -0.019459296549
  5       0.001996189135
  6      -0.001198545929
  7       0.000393389852
  8      -0.000259731512
  9       0.000077907525
 10      -0.000000000000
 11       0.000000000000
 12       0.000000000000
 13      -0.000000000000
 14       0.000000000000
 15       0.000000000000
 16       0.000000000000
 17      -0.000000000000
 18      -0.000000000000
 19      -0.000000000000
 20       0.000000000000
 21       0.000000000000
 22      -0.000000000000
 23       0.000000000000
 24       0.000000000000
 25       0.000000000000
 26      -0.000000000000
 27      -0.000000000000
 28       0.000005370703
 29      -0.000000000000
 30      -0.000000000000
 31      -0.000009302330
 32       0.000000000000
 33      -0.000009214292
 34       0.000000000000
 35       0.000000000000
 36       0.000015959622
 37      -0.000000000000
 38       0.000003148134
 39      -0.000000000000
 40      -0.000000000000
 41      -0.000005452728
 42       0.000000000000
 43      -0.000002000080
 44       0.000000000000
 45       0.000000000000
 46       0.000003464240
 47      -0.000000000000
 48       0.000000000000
 49       0.000000000000
 50      -0.000000000000
 51      -0.000000000000
 52      -0.000000000000
 53      -0.000000000000
 54      -0.000000000000
 55       0.000000000000
 56      -0.000000000000
 57       0.000000000000
 58       0.000000000000
 59      -0.000000000000
 60       0.000000000000
 61       0.000000000000
 62       0.000000020145
 63      -0.000000000000
 64      -0.000000000000
 65      -0.000000030031
 66      -0.000000000000
 67       0.000000000000
 68      -0.000000000000
 69      -0.000000039727
 70       0.000000000000
 Sym=     1a
 Ene= -4.91065252232335E+00
 Spin= Alpha
 Occup= 1.000000
  1       0.222735419275
  2       0.101029548106
  3       0.101711815920
  4      -0.255918674519
  5      -0.561856554099
  6      -0.324019688983
  7      -0.018222376133
  8       0.006070985505
  9      -0.001574983383
 10      -0.000000000000
 11      -0.000000000000
 12      -0.000000000000
 13      -0.000000000000
 14       0.000000000000
 15      -0.000000000000
 16       0.000000000000
 17      -0.000000000000
 18      -0.000000000000
 19      -0.000000000000
 20       0.000000000000
 21       0.000000000000
 22      -0.000000000000
 23       0.000000000000
 24      -0.000000000000
 25       0.000000000000
 26      -0.000000000000
 27       0.000000000000
 28      -0.000393993917
 29       0.000000000000
 30      -0.000000000000
 31       0.000682417482
 32      -0.000000000000
 33      -0.000190759145
 34       0.000000000000
 35       0.000000000000
 36       0.000330404530
 37       0.000000000000
 38       0.000317534867
 39      -0.000000000000
 40      -0.000000000000
 41      -0.000549986523
 42      -0.000000000000
 43      -0.000031276005
 44       0.000000000000
 45       0.000000000000
 46       0.000054171630
 47       0.000000000000
 48       0.000000000000
 49       0.000000000000
 50      -0.000000000000
 51      -0.000000000000
 52       0.000000000000
 53      -0.000000000000
 54       0.000000000000
 55      -0.000000000000
 56       0.000000000000
 57       0.000000000000
 58       0.000000000000
 59      -0.000000000000
 60       0.000000000000
 61      -0.000000000000
 62      -0.000001311129
 63      -0.000000000000
 64      -0.000000000000
 65       0.000001954515
 66       0.000000000000
 67      -0.000000000000
 68       0.000000000000
 69       0.000002585581
 70       0.000000000000
 Sym=     1a
 Ene= -3.22512423937803E+00
 Spin= Alpha
 Occup= 1.000000
  1      -0.000000000000
  2      -0.000000000000
  3      -0.000000000000
  4      -0.000000000000
  5      -0.000000000000
  6      -0.000000000000
  7       0.000000000000
  8      -0.000000000000
  9      -0.000000000000
 10      -0.908640534079
 11       0.000000000000
 12       0.000000000000
 13      -0.001986944400
 14       0.000000000000
 15       0.000000000000
 16      -0.146234860812
 17      -0.000000000000
 18       0.000000000000
 19      -0.011348862700
 20       0.000000000000
 21      -0.000000000000
 22       0.000887684589
 23       0.000000000000
 24       0.000000000000
 25      -0.000363288373
 26      -0.000000000000
 27      -0.000000000000
 28       0.000000000000
 29      -0.000000000000
 30       0.000000000000
 31      -0.000000000000
 32       0.000000000000
 33       0.000000000000
 34      -0.000000000000
 35      -0.000000000000
 36      -0.000000000000
 37       0.000000000000
 38       0.000000000000
 39       0.000000000000
 40       0.000000000000
 41       0.000000000000
 42      -0.000000000000
 43      -0.000000000000
 44      -0.000000000000
 45       0.000000000000
 46      -0.000000000000
 47      -0.000000000000
 48      -0.000000000000
 49       0.000239507229
 50      -0.000000000000
 51       0.000000000000
 52      -0.000000000000
 53       0.000309202503
 54       0.000000000000
 55       0.000000000000
 56      -0.000151184748
 57       0.000000000000
 58      -0.000000000000
 59       0.000000000000
 60      -0.000195178670
 61      -0.000000000000
 62       0.000000000000
 63      -0.000000000000
 64       0.000000000000
 65      -0.000000000000
 66       0.000000000000
 67       0.000000000000
 68       0.000000000000
 69      -0.000000000000
 70       0.000000000000
 Sym=     1a
 Ene= -3.21781789047813E+00
 Spin= Alpha
 Occup= 1.000000
  1      -0.000000000000
  2       0.000000000000
  3      -0.000000000000
  4       0.000000000000
  5      -0.000000000000
  6       0.000000000000
  7      -0.000000000000
  8      -0.000000000000
  9      -0.000000000000
 10      -0.000000000000
 11       0.904614297707
 12      -0.000000000000
 13      -0.000000000000
 14      -0.000743163922
 15      -0.000000000000
 16       0.000000000000
 17       0.148683319501
 18      -0.000000000000
 19      -0.000000000000
 20       0.011938139030
 21       0.000000000000
 22      -0.000000000000
 23      -0.001327990068
 24      -0.000000000000
 25       0.000000000000
 26       0.000457301265
 27       0.000000000000
 28       0.000000000000
 29      -0.000000000000
 30      -0.000000000000
 31      -0.000000000000
 32      -0.000000000000
 33      -0.000000000000
 34       0.000000000000
 35       0.000000000000
 36       0.000000000000
 37      -0.000000000000
 38       0.000000000000
 39       0.000000000000
 40      -0.000000000000
 41      -0.000000000000
 42       0.000000000000
 43      -0.000000000000
 44      -0.000000000000
 45       0.000000000000
 46      -0.000000000000
 47       0.000000000000
 48       0.000000000000
 49       0.000000000000
 50      -0.000079379782
 51      -0.000000000000
 52       0.000000000000
 53      -0.000000000000
 54      -0.000307436575
 55       0.000000000000
 56       0.000000000000
 57       0.000052065408
 58       0.000000000000
 59       0.000000000000
 60      -0.000000000000
 61       0.000201648458
 62      -0.000000000000
 63       0.000000000000
 64       0.000000000000
 65       0.000000000000
 66      -0.000000000000
 67      -0.000000000000
 68       0.000000000000
 69       0.000000000000
 70       0.000000000000
 Sym=     1a
 Ene= -3.21781789047812E+00
 Spin= Alpha
 Occup= 1.000000
  1      -0.000000000000
  2       0.000000000000
  3       0.000000000000
  4      -0.000000000000
  5      -0.000000000000
  6       0.000000000000
  7      -0.000000000000
  8      -0.000000000000
  9       0.000000000000
 10      -0.000000000000
 11      -0.000000000000
 12       0.904614297707
 13      -0.000000000000
 14      -0.000000000000
 15      -0.000743163922
 16      -0.000000000000
 17       0.000000000000
 18       0.148683319501
 19       0.000000000000
 20      -0.000000000000
 21       0.011938139030
 22      -0.000000000000
 23       0.000000000000
 24      -0.001327990068
 25       0.000000000000
 26       0.000000000000
 27       0.000457301265
 28      -0.000000000000
 29      -0.000000000000
 30       0.000000000000
 31      -0.000000000000
 32      -0.000000000000
 33       0.000000000000
 34       0.000000000000
 35      -0.000000000000
 36       0.000000000000
 37      -0.000000000000
 38      -0.000000000000
 39       0.000000000000
 40       0.000000000000
 41       0.000000000000
 42       0.000000000000
 43       0.000000000000
 44      -0.000000000000
 45      -0.000000000000
 46      -0.000000000000
 47       0.000000000000
 48      -0.000194439962
 49      -0.000000000000
 50       0.000000000000
 51       0.000251020912
 52      -0.000000000000
 53      -0.000000000000
 54       0.000000000000
 55       0.000127533683
 56      -0.000000000000
 57      -0.000000000000
 58      -0.000164645276
 59       0.000000000000
 60       0.000000000000
 61      -0.000000000000
 62      -0.000000000000
 63       0.000000000000
 64       0.000000000000
 65       0.000000000000
 66      -0.000000000000
 67      -0.000000000000
 68       0.000000000000
 69       0.000000000000
 70       0.000000000000
 Sym=     1a
 Ene= -4.25491231372291E-01
 Spin= Alpha
 Occup= 1.000000
  1      -0.050665066836
  2      -0.025353194230
  3      -0.024931223498
  4       0.069342859928
  5       0.193782769762
  6       0.234210688515
  7      -0.289020054963
  8      -0.623447725207
  9      -0.253737267650
 10      -0.000000000000
 11       0.000000000000
 12       0.000000000000
 13      -0.000000000000
 14       0.000000000000
 15       0.000000000000
 16       0.000000000000
 17      -0.000000000000
 18      -0.000000000000
 19      -0.000000000000
 20       0.000000000000
 21       0.000000000000
 22      -0.000000000000
 23       0.000000000000
 24      -0.000000000000
 25       0.000000000000
 26       0.000000000000
 27       0.000000000000
 28       0.000882725719
 29      -0.000000000000
 30       0.000000000000
 31      -0.001528925795
 32       0.000000000000
 33       0.006403602367
 34       0.000000000000
 35      -0.000000000000
 36      -0.011091364652
 37      -0.000000000000
 38       0.016219772737
 39      -0.000000000000
 40      -0.000000000000
 41      -0.028093470467
 42       0.000000000000
 43       0.022034656207
 44       0.000000000000
 45       0.000000000000
 46      -0.038165144077
 47      -0.000000000000
 48      -0.000000000000
 49       0.000000000000
 50       0.000000000000
 51       0.000000000000
 52       0.000000000000
 53      -0.000000000000
 54      -0.000000000000
 55       0.000000000000
 56      -0.000000000000
 57      -0.000000000000
 58      -0.000000000000
 59      -0.000000000000
 60       0.000000000000
 61       0.000000000000
 62       0.000027477226
 63      -0.000000000000
 64      -0.000000000000
 65      -0.000040960629
 66      -0.000000000000
 67      -0.000000000000
 68      -0.000000000000
 69      -0.000054185820
 70       0.000000000000
 Sym=     1a
 Ene= -2.18488349024998E-01
 Spin= Alpha
 Occup= 1.000000
  1       0.000000000000
  2      -0.000000000000
  3       0.000000000000
  4      -0.000000000000
  5       0.000000000000
  6      -0.000000000000
  7      -0.000000000000
  8      -0.000000000000
  9       0.000000000000
 10      -0.172245871855
 11      -0.000000000000
 12      -0.000000000000
 13       0.020974584079
 14       0.000000000000
 15      -0.000000000000
 16       0.015624506941
 17       0.000000000000
 18      -0.000000000000
 19       0.305462405120
 20      -0.000000000000
 21       0.000000000000
 22       0.548898582513
 23       0.000000000000
 24      -0.000000000000
 25       0.270069172599
 26       0.000000000000
 27       0.000000000000
 28       0.000000000000
 29      -0.000000000000
 30      -0.000000000000
 31      -0.000000000000
 32      -0.000000000000
 33      -0.000000000000
 34       0.000000000000
 35       0.000000000000
 36       0.000000000000
 37      -0.000000000000
 38       0.000000000000
 39      -0.000000000000
 40       0.000000000000
 41      -0.000000000000
 42       0.000000000000
 43      -0.000000000000
 44      -0.000000000000
 45       0.000000000000
 46       0.000000000000
 47       0.000000000000
 48       0.000000000000
 49      -0.003965009203
 50       0.000000000000
 51      -0.000000000000
 52      -0.000000000000
 53      -0.005118804870
 54      -0.000000000000
 55      -0.000000000000
 56      -0.000950075316
 57      -0.000000000000
 58       0.000000000000
 59      -0.000000000000
 60      -0.001226541958
 61       0.000000000000
 62       0.000000000000
 63      -0.000000000000
 64      -0.000000000000
 65       0.000000000000
 66      -0.000000000000
 67      -0.000000000000
 68      -0.000000000000
 69      -0.000000000000
 70       0.000000000000
 Sym=     1a
 Ene= 1.69471502529372E-02
 Spin= Alpha
 Occup= 0.000000
  1      -0.000000000000
  2       0.000000000000
  3      -0.000000000000
  4       0.000000000000
  5      -0.000000000000
  6       0.000000000000
  7       0.000000000000
  8       0.000000000000
  9       0.000000000000
 10       0.000000000000
 11       0.117215521520
 12      -0.000000000000
 13      -0.000000000000
 14      -0.005123681850
 15      -0.000000000000
 16       0.000000000000
 17       0.012022118163
 18      -0.000000000000
 19      -0.000000000000
 20      -0.229431681009
 21       0.000000000000
 22      -0.000000000000
 23      -0.181319361090
 24      -0.000000000000
 25      -0.000000000000
 26      -0.734437675992
 27       0.000000000000
 28       0.000000000000
 29       0.000000000000
 30      -0.000000000000
 31       0.000000000000
 32       0.000000000000
 33      -0.000000000000
 34       0.000000000000
 35      -0.000000000000
 36       0.000000000000
 37      -0.000000000000
 38       0.000000000000
 39      -0.000000000000
 40       0.000000000000
 41      -0.000000000000
 42       0.000000000000
 43      -0.000000000000
 44       0.000000000000
 45      -0.000000000000
 46       0.000000000000
 47       0.000000000000
 48       0.000000000000
 49      -0.000000000000
 50       0.000779648171
 51       0.000000000000
 52       0.000000000000
 53      -0.000000000000
 54       0.003019564382
 55       0.000000000000
 56       0.000000000000
 57       0.000401760935
 58       0.000000000000
 59      -0.000000000000
 60       0.000000000000
 61       0.001556013410
 62      -0.000000000000
 63      -0.000000000000
 64      -0.000000000000
 65       0.000000000000
 66      -0.000000000000
 67      -0.000000000000
 68      -0.000000000000
 69      -0.000000000000
 70       0.000000000000
 Sym=     1a
 Ene= 1.69471502529426E-02
 Spin= Alpha
 Occup= 0.000000
  1      -0.000000000000
  2       0.000000000000
  3      -0.000000000000
  4      -0.000000000000
  5       0.000000000000
  6      -0.000000000000
  7       0.000000000000
  8      -0.000000000000
  9       0.000000000000
 10       0.000000000000
 11      -0.000000000000
 12       0.117215521520
 13      -0.000000000000
 14      -0.000000000000
 15      -0.005123681850
 16      -0.000000000000
 17       0.000000000000
 18       0.012022118163
 19       0.000000000000
 20       0.000000000000
 21      -0.229431681009
 22      -0.000000000000
 23      -0.000000000000
 24      -0.181319361090
 25       0.000000000000
 26       0.000000000000
 27      -0.734437675991
 28      -0.000000000000
 29       0.000000000000
 30      -0.000000000000
 31       0.000000000000
 32      -0.000000000000
 33       0.000000000000
 34      -0.000000000000
 35       0.000000000000
 36      -0.000000000000
 37      -0.000000000000
 38      -0.000000000000
 39       0.000000000000
 40      -0.000000000000
 41       0.000000000000
 42       0.000000000000
 43       0.000000000000
 44       0.000000000000
 45      -0.000000000000
 46      -0.000000000000
 47       0.000000000000
 48       0.001909740198
 49      -0.000000000000
 50      -0.000000000000
 51      -0.002465463994
 52       0.000000000000
 53      -0.000000000000
 54       0.000000000000
 55       0.000984109289
 56       0.000000000000
 57      -0.000000000000
 58      -0.001270479629
 59      -0.000000000000
 60       0.000000000000
 61      -0.000000000000
 62      -0.000000000000
 63       0.000000000000
 64      -0.000000000000
 65       0.000000000000
 66      -0.000000000000
 67      -0.000000000000
 68      -0.000000000000
 69       0.000000000000
 70       0.000000000000
 Sym=     1a
 Ene= 1.29664814684290E-01
 Spin= Alpha
 Occup= 0.000000
  1       0.025770603856
  2       0.016600064316
  3       0.002860862426
  4       0.004164074665
  5      -0.216906907349
  6       0.065038984307
  7      -0.688932159125
  8       2.863291580772
  9      -2.457053514955
 10      -0.000000000000
 11      -0.000000000000
 12      -0.000000000000
 13       0.000000000000
 14       0.000000000000
 15      -0.000000000000
 16       0.000000000000
 17       0.000000000000
 18      -0.000000000000
 19      -0.000000000000
 20      -0.000000000000
 21       0.000000000000
 22       0.000000000000
 23       0.000000000000
 24      -0.000000000000
 25      -0.000000000000
 26      -0.000000000000
 27       0.000000000000
 28       0.000036730512
 29       0.000000000000
 30      -0.000000000000
 31      -0.000063619113
 32      -0.000000000000
 33      -0.003889372040
 34       0.000000000000
 35       0.000000000000
 36       0.006736589982
 37       0.000000000000
 38       0.009493205765
 39      -0.000000000000
 40      -0.000000000000
 41      -0.016442714712
 42      -0.000000000000
 43      -0.018680423163
 44      -0.000000000000
 45      -0.000000000000
 46       0.032355442027
 47       0.000000000000
 48       0.000000000000
 49       0.000000000000
 50       0.000000000000
 51       0.000000000000
 52      -0.000000000000
 53       0.000000000000
 54       0.000000000000
 55      -0.000000000000
 56      -0.000000000000
 57      -0.000000000000
 58      -0.000000000000
 59       0.000000000000
 60      -0.000000000000
 61      -0.000000000000
 62      -0.000018923623
 63      -0.000000000000
 64       0.000000000000
 65       0.000028209671
 66       0.000000000000
 67      -0.000000000000
 68       0.000000000000
 69       0.000037317887
 70       0.000000000000
 Sym=     1a
 Ene= 1.32547078625346E-01
 Spin= Alpha
 Occup= 0.000000
  1       0.000000000000
  2       0.000000000000
  3       0.000000000000
  4       0.000000000000
  5       0.000000000000
  6       0.000000000000
  7       0.000000000000
  8       0.000000000000
  9       0.000000000000
 10      -0.100040924054
 11      -0.000000000000
 12      -0.000000000000
 13       0.058558141235
 14      -0.000000000000
 15      -0.000000000000
 16       0.117992890440
 17       0.000000000000
 18      -0.000000000000
 19      -0.086447647728
 20      -0.000000000000
 21       0.000000000000
 22       1.290306698553
 23      -0.000000000000
 24      -0.000000000000
 25      -1.543330743637
 26       0.000000000000
 27       0.000000000000
 28       0.000000000000
 29       0.000000000000
 30      -0.000000000000
 31      -0.000000000000
 32      -0.000000000000
 33       0.000000000000
 34       0.000000000000
 35      -0.000000000000
 36       0.000000000000
 37       0.000000000000
 38      -0.000000000000
 39      -0.000000000000
 40       0.000000000000
 41      -0.000000000000
 42       0.000000000000
 43      -0.000000000000
 44      -0.000000000000
 45       0.000000000000
 46       0.000000000000
 47       0.000000000000
 48       0.000000000000
 49      -0.002654224397
 50      -0.000000000000
 51       0.000000000000
 52      -0.000000000000
 53      -0.003426588962
 54       0.000000000000
 55       0.000000000000
 56       0.000896179684
 57      -0.000000000000
 58       0.000000000000
 59      -0.000000000000
 60       0.001156962997
 61       0.000000000000
 62      -0.000000000000
 63       0.000000000000
 64      -0.000000000000
 65      -0.000000000000
 66      -0.000000000000
 67      -0.000000000000
 68       0.000000000000
 69       0.000000000000
 70       0.000000000000
 Sym=     1a
 Ene= 1.55140801339681E-01
 Spin= Alpha
 Occup= 0.000000
  1       0.000000000000
  2       0.000000000000
  3      -0.000000000000
  4      -0.000000000000
  5       0.000000000000
  6      -0.000000000000
  7       0.000000000000
  8      -0.000000000000
  9      -0.000000000000
 10       0.000000000000
 11       0.000000000000
 12       0.137461298625
 13       0.000000000000
 14       0.000000000000
 15      -0.066304460418
 16       0.000000000000
 17      -0.000000000000
 18      -0.127509174908
 19      -0.000000000000
 20      -0.000000000000
 21       0.081840168378
 22       0.000000000000
 23       0.000000000000
 24      -1.514946033291
 25      -0.000000000000
 26      -0.000000000000
 27       1.408134525817
 28      -0.000000000000
 29      -0.000000000000
 30       0.000000000000
 31      -0.000000000000
 32      -0.000000000000
 33      -0.000000000000
 34       0.000000000000
 35       0.000000000000
 36       0.000000000000
 37      -0.000000000000
 38       0.000000000000
 39       0.000000000000
 40      -0.000000000000
 41      -0.000000000000
 42       0.000000000000
 43       0.000000000000
 44      -0.000000000000
 45       0.000000000000
 46      -0.000000000000
 47       0.000000000000
 48       0.002667309980
 49       0.000000000000
 50       0.000000000000
 51      -0.003443482377
 52       0.000000000000
 53       0.000000000000
 54      -0.000000000000
 55      -0.000366540470
 56       0.000000000000
 57      -0.000000000000
 58       0.000473201713
 59       0.000000000000
 60      -0.000000000000
 61       0.000000000000
 62       0.000000000000
 63      -0.000000000000
 64      -0.000000000000
 65       0.000000000000
 66      -0.000000000000
 67      -0.000000000000
 68      -0.000000000000
 69      -0.000000000000
 70       0.000000000000
 Sym=     1a
 Ene= 1.55140801339685E-01
 Spin= Alpha
 Occup= 0.000000
  1       0.000000000000
  2      -0.000000000000
  3      -0.000000000000
  4       0.000000000000
  5       0.000000000000
  6       0.000000000000
  7      -0.000000000000
  8       0.000000000000
  9       0.000000000000
 10       0.000000000000
 11       0.137461298625
 12       0.000000000000
 13       0.000000000000
 14      -0.066304460418
 15       0.000000000000
 16       0.000000000000
 17      -0.127509174908
 18       0.000000000000
 19       0.000000000000
 20       0.081840168378
 21      -0.000000000000
 22       0.000000000000
 23      -1.514946033291
 24       0.000000000000
 25      -0.000000000000
 26       1.408134525817
 27      -0.000000000000
 28      -0.000000000000
 29      -0.000000000000
 30       0.000000000000
 31      -0.000000000000
 32      -0.000000000000
 33      -0.000000000000
 34       0.000000000000
 35       0.000000000000
 36      -0.000000000000
 37      -0.000000000000
 38       0.000000000000
 39       0.000000000000
 40      -0.000000000000
 41       0.000000000000
 42       0.000000000000
 43      -0.000000000000
 44      -0.000000000000
 45       0.000000000000
 46      -0.000000000000
 47       0.000000000000
 48       0.000000000000
 49       0.000000000000
 50       0.001088924739
 51       0.000000000000
 52       0.000000000000
 53       0.000000000000
 54       0.004217387381
 55      -0.000000000000
 56      -0.000000000000
 57      -0.000149639520
 58      -0.000000000000
 59      -0.000000000000
 60      -0.000000000000
 61      -0.000579551371
 62       0.000000000000
 63      -0.000000000000
 64      -0.000000000000
 65       0.000000000000
 66      -0.000000000000
 67      -0.000000000000
 68      -0.000000000000
 69      -0.000000000000
 70       0.000000000000
 Sym=     1a
 Ene= 1.89747423523173E-01
 Spin= Alpha
 Occup= 0.000000
  1       0.004748761619
  2       0.002528657801
  3       0.001979408864
  4      -0.005103817025
  5      -0.023228911629
  6      -0.015844755698
  7       0.024209888511
  8       0.093924369982
  9      -0.038032691073
 10      -0.000000000000
 11       0.000000000000
 12       0.000000000000
 13      -0.000000000000
 14      -0.000000000000
 15       0.000000000000
 16      -0.000000000000
 17      -0.000000000000
 18       0.000000000000
 19      -0.000000000000
 20       0.000000000000
 21      -0.000000000000
 22      -0.000000000000
 23      -0.000000000000
 24      -0.000000000000
 25       0.000000000000
 26       0.000000000000
 27       0.000000000000
 28       0.003254001575
 29       0.000000000000
 30       0.000000000000
 31      -0.005636096056
 32       0.000000000000
 33       0.069863045256
 34       0.000000000000
 35       0.000000000000
 36      -0.121006343955
 37      -0.000000000000
 38      -0.100956629611
 39       0.000000000000
 40      -0.000000000000
 41       0.174862011846
 42       0.000000000000
 43       0.546030687948
 44       0.000000000000
 45       0.000000000000
 46      -0.945752894014
 47      -0.000000000000
 48       0.000000000000
 49      -0.000000000000
 50       0.000000000000
 51       0.000000000000
 52       0.000000000000
 53      -0.000000000000
 54       0.000000000000
 55      -0.000000000000
 56       0.000000000000
 57       0.000000000000
 58       0.000000000000
 59      -0.000000000000
 60       0.000000000000
 61      -0.000000000000
 62       0.000783173160
 63      -0.000000000000
 64       0.000000000000
 65      -0.001167485616
 66      -0.000000000000
 67      -0.000000000000
 68       0.000000000000
 69      -0.001544438299
 70       0.000000000000
 Sym=     1a
 Ene= 1.91739234999139E-01
 Spin= Alpha
 Occup= 0.000000
  1      -0.000000000000
  2       0.000000000000
  3      -0.000000000000
  4      -0.000000000000
  5       0.000000000000
  6      -0.000000000000
  7       0.000000000000
  8      -0.000000000000
  9       0.000000000000
 10      -0.000000000000
 11      -0.000000000000
 12      -0.000000000000
 13       0.000000000000
 14      -0.000000000000
 15       0.000000000000
 16       0.000000000000
 17      -0.000000000000
 18       0.000000000000
 19      -0.000000000000
 20      -0.000000000000
 21      -0.000000000000
 22       0.000000000000
 23       0.000000000000
 24       0.000000000000
 25       0.000000000000
 26      -0.000000000000
 27      -0.000000000000
 28      -0.000000000000
 29      -0.000000000000
 30       0.000000000000
 31       0.000000000000
 32      -0.006209143076
 33      -0.000000000000
 34      -0.000000000000
 35      -0.000000000000
 36       0.000000000000
 37      -0.140664200565
 38       0.000000000000
 39      -0.000000000000
 40       0.000000000000
 41      -0.000000000000
 42       0.214164702861
 43       0.000000000000
 44      -0.000000000000
 45      -0.000000000000
 46      -0.000000000000
 47      -1.103075427667
 48       0.000000000000
 49       0.000000000000
 50      -0.000000000000
 51      -0.000000000000
 52       0.000000000000
 53      -0.000000000000
 54      -0.000000000000
 55      -0.000000000000
 56      -0.000000000000
 57       0.000000000000
 58      -0.000000000000
 59       0.000000000000
 60       0.000000000000
 61       0.000000000000
 62      -0.000000000000
 63       0.000000000000
 64      -0.000000000000
 65       0.000000000000
 66      -0.000675786589
 67       0.000000000000
 68      -0.000000000000
 69      -0.000000000000
 70      -0.001787963255
 Sym=     1a
 Ene= 1.91739234999143E-01
 Spin= Alpha
 Occup= 0.000000
  1      -0.000000000000
  2       0.000000000000
  3      -0.000000000000
  4       0.000000000000
  5      -0.000000000000
  6       0.000000000000
  7      -0.000000000000
  8       0.000000000000
  9      -0.000000000000
 10      -0.000000000000
 11       0.000000000000
 12       0.000000000000
 13      -0.000000000000
 14      -0.000000000000
 15       0.000000000000
 16      -0.000000000000
 17      -0.000000000000
 18       0.000000000000