
                                 *****************
                                 * O   R   C   A *
                                 *****************

           --- An Ab Initio, DFT and Semiempirical electronic structure package ---

                  #######################################################
                  #                        -***-                        #
                  #  Department of molecular theory and spectroscopy    #
                  #              Directorship: Frank Neese              #
                  # Max Planck Institute for Chemical Energy Conversion #
                  #                  D-45470 Muelheim/Ruhr              #
                  #                       Germany                       #
                  #                                                     #
                  #                  All rights reserved                #
                  #                        -***-                        #
                  #######################################################


                         Program Version 4.0.1.2 - RELEASE -


 With contributions from (in alphabetic order):
   Daniel Aravena         : Magnetic Properties
   Michael Atanasov       : Ab Initio Ligand Field Theory
   Ute Becker             : Parallelization
   Martin Brehm           : Molecular dynamics
   Dmytro Bykov           : SCF Hessian
   Vijay G. Chilkuri      : MRCI spin determinant printing
   Dipayan Datta          : RHF DLPNO-CCSD density
   Achintya Kumar Dutta   : EOM-CC, STEOM-CC
   Dmitry Ganyushin       : Spin-Orbit,Spin-Spin,Magnetic field MRCI
   Yang Guo               : DLPNO-NEVPT2, CIM, IAO-localization
   Andreas Hansen         : Spin unrestricted coupled pair/coupled cluster methods
   Lee Huntington         : MR-EOM, pCC
   Robert Izsak           : Overlap fitted RIJCOSX, COSX-SCS-MP3, EOM
   Christian Kollmar      : KDIIS, OOCD, Brueckner-CCSD(T), CCSD density
   Simone Kossmann        : Meta GGA functionals, TD-DFT gradient, OOMP2, MP2 Hessian
   Martin Krupicka        : AUTO-CI
   Dagmar Lenk            : GEPOL surface
   Dimitrios Liakos       : Extrapolation schemes; parallel MDCI
   Dimitrios Manganas     : ROCIS; embedding schemes
   Dimitrios Pantazis     : SARC Basis sets
   Taras Petrenko         : DFT Hessian,TD-DFT gradient, ASA, ECA, R-Raman, ABS, FL, XAS/XES, NRVS
   Peter Pinski           : DLPNO-MP2
   Christoph Reimann      : Effective Core Potentials
   Marius Retegan         : Local ZFS, SOC
   Christoph Riplinger    : Optimizer, TS searches, QM/MM, DLPNO-CCSD(T), (RO)-DLPNO pert. Triples
   Tobias Risthaus        : Range-separated hybrids, TD-DFT gradient, RPA, STAB
   Michael Roemelt        : Restricted open shell CIS
   Masaaki Saitow         : Open-shell DLPNO
   Barbara Sandhoefer     : DKH picture change effects
   Kantharuban Sivalingam : CASSCF convergence, NEVPT2, FIC-MRCI
   Georgi Stoychev        : AutoAux
   Boris Wezisla          : Elementary symmetry handling
   Frank Wennmohs         : Technical directorship


 We gratefully acknowledge several colleagues who have allowed us to
 interface, adapt or use parts of their codes:
   Stefan Grimme, W. Hujo, H. Kruse,             : VdW corrections, initial TS optimization,
                  C. Bannwarth                     DFT functionals, gCP, sTDA/sTD-DF
   Ed Valeev                                     : LibInt (2-el integral package), F12 methods
   Garnet Chan, S. Sharma, J. Yang, R. Olivares  : DMRG
   Ulf Ekstrom                                   : XCFun DFT Library
   Mihaly Kallay                                 : mrcc  (arbitrary order and MRCC methods)
   Andreas Klamt, Michael Diedenhofen            : otool_cosmo (COSMO solvation model)
   Jiri Pittner, Ondrej Demel                    : Mk-CCSD
   Frank Weinhold                                : gennbo (NPA and NBO analysis)
   Christopher J. Cramer and Donald G. Truhlar   : smd solvation model


 Your calculation uses the libint2 library for the computation of 2-el integrals
 For citations please refer to: http://libint.valeyev.net

 This ORCA versions uses:
   CBLAS   interface :  Fast vector & matrix operations
   LAPACKE interface :  Fast linear algebra routines
   SCALAPACK package :  Parallel linear algebra routines




*****************************************
The coordinations will be read from file: ../../../../chem_database/Na.xyz
*****************************************


Your calculation utilizes the basis: def2-QZVP
   F. Weigend and R. Ahlrichs, Phys. Chem. Chem. Phys. 7, 3297 (2005).

================================================================================
                                        WARNINGS
                       Please study these warnings very carefully!
================================================================================

Warning: TCutStore was < 0. Adjusted to Thresh (uncritical)

WARNING: your system is open-shell and RHF/RKS was chosen
  ===> : WILL SWITCH to UHF/UKS


INFO   : the flag for use of LIBINT has been found!

================================================================================
                                       INPUT FILE
================================================================================
NAME = mol.inp
|  1> # ================================================================
|  2> # Orca input file
|  3> # ================================================================
|  4> ! HF def2-QZVP VeryTightSCF UseSym
|  5> 
|  6> ! PAL4
|  7> 
|  8> %scf
|  9>   STABPerform true
| 10> #  STABRestartUHFifUnstable true
| 11> end
| 12> 
| 13> 
| 14> 
| 15> * xyzfile 0 2 ../../../../chem_database/Na.xyz
| 16> 
| 17>                          ****END OF INPUT****
================================================================================

------------------------------------------------------------------------------
                            SYMMETRY HANDLING SETUP
------------------------------------------------------------------------------

------------------
SYMMETRY DETECTION
------------------
Preparing Data                    ... done
Detection Threshold:    SymThresh ... 1.0000e-04

Point Group will now be determined:
Moving molecule to center of mass ... done

POINT GROUP                       ... Kh

The coordinates will now be cleaned:
Structure cleanup requested       ... yes
Selected point group              ... Kh
Cleaning Tolerance      SymThresh ... 1.0000e-04

Cleaning coordinates              ... done

-----------------------------------------------
SYMMETRY-PERFECTED CARTESIAN COORDINATES (A.U.)
-----------------------------------------------
Warning (ORCA_SYM): Coordinates were not cleaned so far!

------------------
SYMMETRY REDUCTION
------------------
ORCA supports only abelian point groups.
It is now checked, if the determined point group is supported:
Point Group ( Kh    ) is          ... NOT supported
Reducing to abelian subgroup      ... D2h

(Re)building abelian point group:
Creating Character Table          ... done
Making direct product table       ... done
Constructing symmetry operations  ... done
Creating atom transfer table      ... done
Creating asymmetric unit          ... done

----------------------
ASYMMETRIC UNIT IN D2h
----------------------
  #  AT     MASS              COORDS (A.U.)             BAS
   0 Na  22.9900   0.00000000   0.00000000   0.00000000   0

----------------------
SYMMETRY ADAPTED BASIS
----------------------
The coefficients for the symmetry adapted linear combinations (SALCS)
of basis functions will now be computed:
Number of basis functions         ...    46
Preparing memory                  ... done
Constructing Gamma(red)           ... done
Reducing Gamma(red)               ... done
Constructing SALCs                ... done
Checking SALC integrity           ... nothing suspicious
Normalizing SALCs                 ... done

Storing the symmetry object:
Symmetry file                     ... mol.sym.tmp
Writing symmetry information      ... done

                       ****************************
                       * Single Point Calculation *
                       ****************************

---------------------------------
CARTESIAN COORDINATES (ANGSTROEM)
---------------------------------
  Na     0.000000    0.000000    0.000000

----------------------------
CARTESIAN COORDINATES (A.U.)
----------------------------
  NO LB      ZA    FRAG     MASS         X           Y           Z
   0 Na   11.0000    0    22.990    0.000000    0.000000    0.000000

--------------------------------
INTERNAL COORDINATES (ANGSTROEM)
--------------------------------
 Na     0   0   0     0.000000000000     0.00000000     0.00000000

---------------------------
INTERNAL COORDINATES (A.U.)
---------------------------
 Na     0   0   0     0.000000000000     0.00000000     0.00000000

---------------------
BASIS SET INFORMATION
---------------------
There are 1 groups of distinct atoms

 Group   1 Type Na  : 20s12p3d1f contracted to 9s5p3d1f pattern {1031111111/81111/111/1}

Atom   0Na   basis set group =>   1


           ************************************************************
           *        Program running with 4 parallel MPI-processes     *
           *              working on a common directory               *
           ************************************************************
------------------------------------------------------------------------------
                           ORCA GTO INTEGRAL CALCULATION
------------------------------------------------------------------------------

                         BASIS SET STATISTICS AND STARTUP INFO

 # of primitive gaussian shells          ...   36
 # of primitive gaussian functions       ...   78
 # of contracted shells                  ...   18
 # of contracted basis functions         ...   46
 Highest angular momentum                ...    3
 Maximum contraction depth               ...   10
 Integral package used                   ... LIBINT
 Integral threshhold            Thresh   ...  1.000e-12
 Primitive cut-off              TCut     ...  1.000e-14


------------------------------ INTEGRAL EVALUATION ----------------------------


 * One electron integrals 
 Pre-screening matrix                    ... done
 Shell pair data                         ... done (   0.000 sec)



           ************************************************************
           *        Program running with 4 parallel MPI-processes     *
           *              working on a common directory               *
           ************************************************************
-------------------------------------------------------------------------------
                                 ORCA SCF
-------------------------------------------------------------------------------

------------
SCF SETTINGS
------------
Hamiltonian:
 Ab initio Hamiltonian  Method          .... Hartree-Fock(GTOs)


General Settings:
 Integral files         IntName         .... mol
 Hartree-Fock type      HFTyp           .... UHF
 Total Charge           Charge          ....    0
 Multiplicity           Mult            ....    2
 Number of Electrons    NEL             ....   11
 Basis Dimension        Dim             ....   46
 Nuclear Repulsion      ENuc            ....      0.0000000000 Eh

 Symmetry handling      UseSym         .... ON
 Point group                           .... D2h
 Used point group                      .... D2h
 Number of irreps                      .... 8
   Irrep   Ag has   15 symmetry adapted basis functions (ofs=   0)
   Irrep  B1g has    3 symmetry adapted basis functions (ofs=  15)
   Irrep  B2g has    3 symmetry adapted basis functions (ofs=  18)
   Irrep  B3g has    3 symmetry adapted basis functions (ofs=  21)
   Irrep   Au has    1 symmetry adapted basis functions (ofs=  24)
   Irrep  B1u has    7 symmetry adapted basis functions (ofs=  25)
   Irrep  B2u has    7 symmetry adapted basis functions (ofs=  32)
   Irrep  B3u has    7 symmetry adapted basis functions (ofs=  39)

Convergence Acceleration:
 DIIS                   CNVDIIS         .... on
   Start iteration      DIISMaxIt       ....    12
   Startup error        DIISStart       ....  0.200000
   # of expansion vecs  DIISMaxEq       ....     5
   Bias factor          DIISBfac        ....   1.050
   Max. coefficient     DIISMaxC        ....  10.000
 Newton-Raphson         CNVNR           .... off
 SOSCF                  CNVSOSCF        .... off
 Level Shifting         CNVShift        .... on
   Level shift para.    LevelShift      ....    0.2500
   Turn off err/grad.   ShiftErr        ....    0.0010
 Zerner damping         CNVZerner       .... off
 Static damping         CNVDamp         .... on
   Fraction old density DampFac         ....    0.7000
   Max. Damping (<1)    DampMax         ....    0.9800
   Min. Damping (>=0)   DampMin         ....    0.0000
   Turn off err/grad.   DampErr         ....    0.1000
 Fernandez-Rico         CNVRico         .... off

SCF Procedure:
 Maximum # iterations   MaxIter         ....   125
 SCF integral mode      SCFMode         .... Direct
   Integral package                     .... LIBINT
 Reset frequeny         DirectResetFreq ....    20
 Integral Threshold     Thresh          ....  1.000e-12 Eh
 Primitive CutOff       TCut            ....  1.000e-14 Eh

Convergence Tolerance:
 Convergence Check Mode ConvCheckMode   .... Total+1el-Energy
 Convergence forced     ConvForced      .... 0
 Energy Change          TolE            ....  1.000e-09 Eh
 1-El. energy change                    ....  1.000e-06 Eh
 DIIS Error             TolErr          ....  1.000e-08


Diagonalization of the overlap matrix:
Smallest eigenvalue                        ... 4.892e-03
Time for diagonalization                   ...    0.003 sec
Threshold for overlap eigenvalues          ... 1.000e-08
Number of eigenvalues below threshold      ... 0
Time for construction of square roots      ...    0.001 sec
Producing symmetrization matrix            ... done (   0.000 sec)
Total time needed                          ...    0.005 sec

-------------------
DFT GRID GENERATION
-------------------

General Integration Accuracy     IntAcc      ...  4.340
Radial Grid Type                 RadialGrid  ... Gauss-Chebyshev
Angular Grid (max. acc.)         AngularGrid ... Lebedev-110
Angular grid pruning method      GridPruning ... 3 (G Style)
Weight generation scheme         WeightScheme... Becke
Basis function cutoff            BFCut       ...    1.0000e-12
Integration weight cutoff        WCut        ...    1.0000e-14
Grids for H and He will be reduced by one unit

# of grid points (after initial pruning)     ...   1864 (   0.0 sec)
# of grid points (after weights+screening)   ...   1864 (   0.0 sec)
Grid point division into batches done        ...    0.0 sec
Reduced shell lists constructed in    0.0 sec

Total number of grid points                  ...     1864
Total number of batches                      ...       30
Average number of points per batch           ...       62
Average number of grid points per atom       ...     1864
Average number of shells per batch           ...     9.67 (53.70%)
Average number of basis functions per batch  ...    29.67 (64.49%)
Average number of large shells per batch     ...     9.22 (95.40%)
Average number of large basis fcns per batch ...    29.00 (97.75%)
Maximum spatial batch extension              ...  41.76, 31.89, 41.76 au
Average spatial batch extension              ...   8.24,  6.44,  7.52 au

Time for grid setup =    0.026 sec

------------------------------
INITIAL GUESS: MODEL POTENTIAL
------------------------------
Loading Hartree-Fock densities                     ... done
Calculating cut-offs                               ... done
Setting up the integral package                    ... done
Initializing the effective Hamiltonian             ... done
Starting the Coulomb interaction                   ... done (   0.0 sec)
Reading the grid                                   ... done
Mapping shells                                     ... done
Starting the XC term evaluation                    ... done (   0.0 sec)
done (   0.0 sec)
Diagonalizing the Hamiltonian                      ... done (   0.0 sec)
Back transforming the eigenvectors                 ... done (   0.0 sec)
Now organizing SCF variables                       ... done
The symmetry of the initial guess is 2-Ag
Irrep occupations for operator 0
    Ag -    3
   B1g -    0
   B2g -    0
   B3g -    0
    Au -    0
   B1u -    1
   B2u -    1
   B3u -    1
Irrep occupations for operator 1
    Ag -    2
   B1g -    0
   B2g -    0
   B3g -    0
    Au -    0
   B1u -    1
   B2u -    1
   B3u -    1
                      ------------------
                      INITIAL GUESS DONE (   0.2 sec)
                      ------------------
--------------
SCF ITERATIONS
--------------
ITER       Energy         Delta-E        Max-DP      RMS-DP      [F,P]     Damp
               ***  Starting incremental Fock matrix formation  ***
  0   -161.8434230025   0.000000000000 0.00779819  0.00047099  0.3827889 0.7000
  1   -161.8482616222  -0.004838619746 0.00560145  0.00034499  0.2678789 0.7000
                               ***Turning on DIIS***
  2   -161.8514861001  -0.003224477893 0.00414457  0.00024386  0.1871127 0.7000
  3   -161.7670530860   0.084433014112 0.00635784  0.00021019  0.1308918 0.7000
  4   -161.7847400969  -0.017687010881 0.02431759  0.00064943  0.0919202 0.0000
  5   -161.8580567937  -0.073316696829 0.01271740  0.00028285  0.0008428 0.0000
  6   -161.8599839540  -0.001927160294 0.00738200  0.00015283  0.0004064 0.0000
  7   -161.8596884809   0.000295473049 0.00254921  0.00004795  0.0001409 0.0000
  8   -161.8590051435   0.000683337405 0.00034460  0.00000892  0.0000294 0.0000
  9   -161.8588179340   0.000187209587 0.00011769  0.00000246  0.0000043 0.0000
 10   -161.8587977846   0.000020149360 0.00006748  0.00000130  0.0000008 0.0000
 11   -161.8587939085   0.000003876071 0.00001185  0.00000023  0.0000001 0.0000
                            ***DIIS convergence achieved***

               *****************************************************
               *                     SUCCESS                       *
               *           SCF CONVERGED AFTER  12 CYCLES          *
               *****************************************************


------------------------------------------------------------------------------
                          SCF STABILITY ANALYSIS                              
------------------------------------------------------------------------------


                       ****Iteration    0****

   Memory handling for direct AO based CIS:
   Memory per vector needed      ...     1 MB
   Memory needed                 ...     0 MB
   Memory available              ...  1024 MB
   Number of vectors per batch   ...  1024
   Number of batches             ...     1
   Time for densities:     0.000
   Using LibInt in JK Direct
   Time for J+K (Direct):     0.106
   Time for Sigma-Completion:     0.001
   Lowest Energy          :     0.073234520323
   Maximum Energy change  :     0.084064501162 (vector 2)
   Maximum residual norm  :     0.001079423413

                       ****Iteration    1****
   Time for densities:     0.000
   Using LibInt in JK Direct
   Time for J+K (Direct):     0.107
   Time for Sigma-Completion:     0.000
   Lowest Energy          :     0.072273208142
   Maximum Energy change  :     0.011377786601 (vector 2)
   Maximum residual norm  :     0.000977132000

                       ****Iteration    2****
   Time for densities:     0.000
   Using LibInt in JK Direct
   Time for J+K (Direct):     0.108
   Time for Sigma-Completion:     0.000
   Lowest Energy          :     0.072088550260
   Maximum Energy change  :     0.000440712931 (vector 2)
   Maximum residual norm  :     0.000081471356

      *** CONVERGENCE OF RESIDUAL NORM REACHED ***

----------------------------- 
SCF STABILITY ANALYSIS RESULT 
----------------------------- 

UHF/UKS->UHF/UKS - singlet - internal

   Root    Eigenvalue (au) 
     0       0.072089 
     1       0.072246 
     2       0.072246 

Stability Analysis indicates a stable HF/KS wave function.


Total time for performing the stability analysis:     0.326sec


----------------
TOTAL SCF ENERGY
----------------

Total Energy       :         -161.85879346 Eh           -4404.40169 eV

Components:
Nuclear Repulsion  :            0.00000000 Eh               0.00000 eV
Electronic Energy  :         -161.85879346 Eh           -4404.40169 eV
One Electron Energy:         -227.87607308 Eh           -6200.82319 eV
Two Electron Energy:           66.01727962 Eh            1796.42151 eV

Virial components:
Potential Energy   :         -323.71695674 Eh           -8808.78622 eV
Kinetic Energy     :          161.85816328 Eh            4404.38454 eV
Virial Ratio       :            2.00000389


---------------
SCF CONVERGENCE
---------------

  Last Energy change         ...    4.4499e-07  Tolerance :   1.0000e-09
  Last MAX-Density change    ...    4.9693e-07  Tolerance :   1.0000e-08
  Last RMS-Density change    ...    9.5257e-09  Tolerance :   1.0000e-09
  Last DIIS Error            ...    7.5050e-09  Tolerance :   1.0000e-08

             **** THE GBW FILE WAS UPDATED (mol.gbw) ****
             **** DENSITY FILE WAS UPDATED (mol.scfp.tmp) ****
             **** ENERGY FILE WAS UPDATED (mol.en.tmp) ****
----------------------
UHF SPIN CONTAMINATION
----------------------

Expectation value of <S**2>     :     0.750058
Ideal value S*(S+1) for S=0.5   :     0.750000
Deviation                       :     0.000058

----------------
ORBITAL ENERGIES
----------------
                 SPIN UP ORBITALS
  NO   OCC          E(Eh)            E(eV)    Irrep 
   0   1.0000     -40.479852     -1101.5128    1-Ag
   1   1.0000      -2.800454       -76.2042    2-Ag
   2   1.0000      -1.518997       -41.3340    1-B3u
   3   1.0000      -1.518997       -41.3340    1-B2u
   4   1.0000      -1.518997       -41.3340    1-B1u
   5   1.0000      -0.182187        -4.9576    3-Ag
   6   0.0000       0.019042         0.5182    2-B2u
   7   0.0000       0.019042         0.5182    2-B3u
   8   0.0000       0.019042         0.5182    2-B1u
   9   0.0000       0.039823         1.0836    4-Ag
  10   0.0000       0.088120         2.3979    3-B3u
  11   0.0000       0.088120         2.3979    3-B2u
  12   0.0000       0.088120         2.3979    3-B1u
  13   0.0000       0.204873         5.5749    5-Ag
  14   0.0000       0.207081         5.6350    6-Ag
  15   0.0000       0.207081         5.6350    7-Ag
  16   0.0000       0.207081         5.6350    1-B1g
  17   0.0000       0.207081         5.6350    1-B2g
  18   0.0000       0.207081         5.6350    1-B3g
  19   0.0000       0.338167         9.2020    4-B2u
  20   0.0000       0.338167         9.2020    4-B3u
  21   0.0000       0.338167         9.2020    4-B1u
  22   0.0000       0.545450        14.8424    5-B2u
  23   0.0000       0.545450        14.8424    5-B3u
  24   0.0000       0.545450        14.8424    5-B1u
  25   0.0000       0.545450        14.8424    6-B3u
  26   0.0000       0.545450        14.8424    6-B2u
  27   0.0000       0.545450        14.8424    6-B1u
  28   0.0000       0.545450        14.8424    1-Au
  29   0.0000       0.752314        20.4715    8-Ag
  30   0.0000       0.752314        20.4715    9-Ag
  31   0.0000       0.752314        20.4715    2-B2g
  32   0.0000       0.752314        20.4715    2-B1g
  33   0.0000       0.752314        20.4715    2-B3g
  34   0.0000       1.165174        31.7060    7-B2u
  35   0.0000       1.165174        31.7060    7-B3u
  36   0.0000       1.165174        31.7060    7-B1u
  37   0.0000       1.321739        35.9663   10-Ag
  38   0.0000       5.953068       161.9912   11-Ag
  39   0.0000       6.340230       172.5264   12-Ag
  40   0.0000       6.340230       172.5264   13-Ag
  41   0.0000       6.340230       172.5264    3-B1g
  42   0.0000       6.340230       172.5264    3-B3g
  43   0.0000       6.340230       172.5264    3-B2g
  44   0.0000      21.784790       592.7943   14-Ag
  45   0.0000     128.527779      3497.4187   15-Ag

                 SPIN DOWN ORBITALS
  NO   OCC          E(Eh)            E(eV)    Irrep 
   0   1.0000     -40.477152     -1101.4393    1-Ag
   1   1.0000      -2.793473       -76.0143    2-Ag
   2   1.0000      -1.517135       -41.2833    1-B3u
   3   1.0000      -1.517135       -41.2833    1-B2u
   4   1.0000      -1.517135       -41.2833    1-B1u
   5   0.0000       0.009430         0.2566    3-Ag
   6   0.0000       0.032096         0.8734    2-B3u
   7   0.0000       0.032096         0.8734    2-B1u
   8   0.0000       0.032096         0.8734    2-B2u
   9   0.0000       0.064422         1.7530    4-Ag
  10   0.0000       0.115976         3.1559    3-B1u
  11   0.0000       0.115976         3.1559    3-B3u
  12   0.0000       0.115976         3.1559    3-B2u
  13   0.0000       0.226870         6.1734    5-Ag
  14   0.0000       0.226870         6.1734    6-Ag
  15   0.0000       0.226870         6.1734    1-B1g
  16   0.0000       0.226870         6.1734    1-B2g
  17   0.0000       0.226870         6.1734    1-B3g
  18   0.0000       0.233638         6.3576    7-Ag
  19   0.0000       0.360130         9.7996    4-B2u
  20   0.0000       0.360130         9.7996    4-B1u
  21   0.0000       0.360130         9.7996    4-B3u
  22   0.0000       0.559129        15.2147    1-Au
  23   0.0000       0.559129        15.2147    5-B2u
  24   0.0000       0.559129        15.2147    5-B3u
  25   0.0000       0.559129        15.2147    5-B1u
  26   0.0000       0.559129        15.2147    6-B2u
  27   0.0000       0.559129        15.2147    6-B3u
  28   0.0000       0.559129        15.2147    6-B1u
  29   0.0000       0.765686        20.8354    8-Ag
  30   0.0000       0.765686        20.8354    9-Ag
  31   0.0000       0.765686        20.8354    2-B1g
  32   0.0000       0.765686        20.8354    2-B2g
  33   0.0000       0.765686        20.8354    2-B3g
  34   0.0000       1.174313        31.9547    7-B2u
  35   0.0000       1.174313        31.9547    7-B1u
  36   0.0000       1.174313        31.9547    7-B3u
  37   0.0000       1.337087        36.3840   10-Ag
  38   0.0000       5.957882       162.1222   11-Ag
  39   0.0000       6.341260       172.5545   12-Ag
  40   0.0000       6.341260       172.5545   13-Ag
  41   0.0000       6.341260       172.5545    3-B1g
  42   0.0000       6.341260       172.5545    3-B3g
  43   0.0000       6.341260       172.5545    3-B2g
  44   0.0000      21.787413       592.8657   14-Ag
  45   0.0000     128.530125      3497.4825   15-Ag

                    ********************************
                    * MULLIKEN POPULATION ANALYSIS *
                    ********************************

--------------------------------------------
MULLIKEN ATOMIC CHARGES AND SPIN POPULATIONS
--------------------------------------------
   0 Na:    0.000000    1.000000
Sum of atomic charges         :    0.0000000
Sum of atomic spin populations:    1.0000000

-----------------------------------------------------
MULLIKEN REDUCED ORBITAL CHARGES AND SPIN POPULATIONS
-----------------------------------------------------
CHARGE
  0 Nas       :     5.000000  s :     5.000000
      pz      :     2.000000  p :     6.000000
      px      :     2.000000
      py      :     2.000000
      dz2     :     0.000000  d :     0.000000
      dxz     :     0.000000
      dyz     :     0.000000
      dx2y2   :     0.000000
      dxy     :     0.000000
      f0      :     0.000000  f :     0.000000
      f+1     :     0.000000
      f-1     :     0.000000
      f+2     :     0.000000
      f-2     :     0.000000
      f+3     :     0.000000
      f-3     :     0.000000

SPIN
  0 Nas       :     1.000000  s :     1.000000
      pz      :    -0.000000  p :    -0.000000
      px      :    -0.000000
      py      :    -0.000000
      dz2     :     0.000000  d :     0.000000
      dxz     :    -0.000000
      dyz     :     0.000000
      dx2y2   :     0.000000
      dxy     :     0.000000
      f0      :    -0.000000  f :    -0.000000
      f+1     :    -0.000000
      f-1     :    -0.000000
      f+2     :     0.000000
      f-2     :     0.000000
      f+3     :    -0.000000
      f-3     :    -0.000000


                     *******************************
                     * LOEWDIN POPULATION ANALYSIS *
                     *******************************

-------------------------------------------
LOEWDIN ATOMIC CHARGES AND SPIN POPULATIONS
-------------------------------------------
   0 Na:    0.000000    1.000000

----------------------------------------------------
LOEWDIN REDUCED ORBITAL CHARGES AND SPIN POPULATIONS
----------------------------------------------------
CHARGE
  0 Nas       :     5.000000  s :     5.000000
      pz      :     2.000000  p :     6.000000
      px      :     2.000000
      py      :     2.000000
      dz2     :     0.000000  d :     0.000000
      dxz     :     0.000000
      dyz     :     0.000000
      dx2y2   :     0.000000
      dxy     :     0.000000
      f0      :     0.000000  f :     0.000000
      f+1     :     0.000000
      f-1     :     0.000000
      f+2     :     0.000000
      f-2     :     0.000000
      f+3     :     0.000000
      f-3     :     0.000000

SPIN
  0 Nas       :     1.000000  s :     1.000000
      pz      :    -0.000000  p :    -0.000000
      px      :    -0.000000
      py      :    -0.000000
      dz2     :     0.000000  d :     0.000000
      dxz     :    -0.000000
      dyz     :    -0.000000
      dx2y2   :     0.000000
      dxy     :    -0.000000
      f0      :    -0.000000  f :    -0.000000
      f+1     :    -0.000000
      f-1     :    -0.000000
      f+2     :     0.000000
      f-2     :     0.000000
      f+3     :    -0.000000
      f-3     :    -0.000000


                      *****************************
                      * MAYER POPULATION ANALYSIS *
                      *****************************

  NA   - Mulliken gross atomic population
  ZA   - Total nuclear charge
  QA   - Mulliken gross atomic charge
  VA   - Mayer's total valence
  BVA  - Mayer's bonded valence
  FA   - Mayer's free valence

  ATOM       NA         ZA         QA         VA         BVA        FA
  0 Na    11.0000    11.0000     0.0000     1.0001     0.0000     1.0001

  Mayer bond orders larger than 0.1


-------
TIMINGS
-------

Total SCF time: 0 days 0 hours 0 min 2 sec 

Total time                  ....       2.574 sec
Sum of individual times     ....       2.561 sec  ( 99.5%)

Fock matrix formation       ....       2.048 sec  ( 79.6%)
Diagonalization             ....       0.009 sec  (  0.4%)
Density matrix formation    ....       0.001 sec  (  0.0%)
Population analysis         ....       0.001 sec  (  0.0%)
Initial guess               ....       0.147 sec  (  5.7%)
Orbital Transformation      ....       0.000 sec  (  0.0%)
Orbital Orthonormalization  ....       0.000 sec  (  0.0%)
DIIS solution               ....       0.003 sec  (  0.1%)
SCF Stability Analysis      ....       0.326 sec  ( 12.7%)

-------------------------   --------------------
FINAL SINGLE POINT ENERGY      -161.858793463534
-------------------------   --------------------


                            ***************************************
                            *     ORCA property calculations      *
                            ***************************************

                                    ---------------------
                                    Active property flags
                                    ---------------------
   (+) Dipole Moment


------------------------------------------------------------------------------
                       ORCA ELECTRIC PROPERTIES CALCULATION
------------------------------------------------------------------------------

Dipole Moment Calculation                       ... on
Quadrupole Moment Calculation                   ... off
Polarizability Calculation                      ... off
GBWName                                         ... mol.gbw
Electron density file                           ... mol.scfp.tmp
The origin for moment calculation is the CENTER OF MASS  = ( 0.000000,  0.000000  0.000000)

-------------
DIPOLE MOMENT
-------------
                                X             Y             Z
Electronic contribution:      0.00000       0.00000      -0.00000
Nuclear contribution   :      0.00000       0.00000       0.00000
                        -----------------------------------------
Total Dipole Moment    :      0.00000       0.00000      -0.00000
                        -----------------------------------------
Magnitude (a.u.)       :      0.00000
Magnitude (Debye)      :      0.00000


Timings for individual modules:

Sum of individual times         ...        3.257 sec (=   0.054 min)
GTO integral calculation        ...        0.469 sec (=   0.008 min)  14.4 %
SCF iterations                  ...        2.788 sec (=   0.046 min)  85.6 %
                             ****ORCA TERMINATED NORMALLY****
TOTAL RUN TIME: 0 days 0 hours 0 minutes 3 seconds 636 msec
