[Molden Format]
[Title]
 Molden file created by orca_2mkl for BaseName=mol

[Atoms] AU
Na   1  11          0.0000000000         0.0000000000         0.0000000000 
[GTO]
  1 0
s  10 1.0 
   379852.2008100000         0.2395712468
    56886.0063780000         0.4483699307
    12942.7018380000         0.7763160531
     3664.3017904000         1.2670924147
     1194.7417499000         1.9631655959
      430.9819291700         2.8583908885
      167.8316942400         3.7862592337
       69.3066690400         4.2464591391
       29.9511708860         3.5234357244
       13.3807910970         1.6186465757
s   3 1.0 
      121.7401128300         0.8831781883
       37.0441433870         2.8853857280
       13.9954226240         3.8275699649
s   1 1.0 
        5.9827797428         2.7263860635
s   1 1.0 
        2.4830455118         1.4097710958
s   1 1.0 
        1.0452506187         0.7367589448
s   1 1.0 
        0.4387564038         0.3842179879
s   1 1.0 
        0.0655956332         0.0923775179
s   1 1.0 
        0.0305619251         0.0520949496
s   1 1.0 
        0.0155090640         0.0313219854
p   8 1.0 
      690.7762701700         1.9674835176
      163.8280612100         2.7607930878
       52.8764607690         3.4523617731
       19.8122704930         3.7025272309
        8.1320378784         3.2324981899
        3.4969068377         2.0592003476
        1.5117244146         0.9036883339
        0.6447929491         0.2415003229
p   1 1.0 
        0.2614582331         0.2664974086
p   1 1.0 
        0.1170472612         0.0975869305
p   1 1.0 
        0.0404947477         0.0258933630
p   1 1.0 
        0.0156667074         0.0079006396
d   1 1.0 
        2.9000000000        18.3724290909
d   1 1.0 
        0.2300000000         0.2177678666
d   1 1.0 
        0.0757000000         0.0311449668
f   1 1.0 
        0.1350000000         0.0629870195

[5D]
[9G]
[MO]
 Sym=     1a
 Ene= -4.04798515919078E+01
 Spin= Alpha
 Occup= 1.000000
  1      -0.940461883790
  2      -0.000469959680
  3      -0.083215127171
  4      -0.002875924555
  5      -0.001346755041
  6       0.000057505856
  7      -0.000075311527
  8       0.000072905198
  9      -0.000028164334
 10       0.000000000000
 11      -0.000000000000
 12      -0.000000000000
 13      -0.000000000000
 14      -0.000000000000
 15       0.000000000000
 16       0.000000000000
 17      -0.000000000000
 18      -0.000000000000
 19      -0.000000000000
 20       0.000000000000
 21       0.000000000000
 22       0.000000000000
 23       0.000000000000
 24      -0.000000000000
 25       0.000000000000
 26       0.000000000000
 27       0.000000000000
 28      -0.000000000000
 29      -0.000000000000
 30      -0.000000000000
 31      -0.000000000000
 32      -0.000000000000
 33      -0.000000000000
 34       0.000000000000
 35       0.000000000000
 36      -0.000000000000
 37       0.000000000000
 38       0.000000000000
 39      -0.000000000000
 40      -0.000000000000
 41       0.000000000000
 42      -0.000000000000
 43       0.000000000000
 44      -0.000000000000
 45       0.000000000000
 46       0.000000000000
 Sym=     1a
 Ene= -2.80045374297178E+00
 Spin= Alpha
 Occup= 1.000000
  1       0.233839170047
  2       0.126120757275
  3       0.010703927112
  4      -0.368573835250
  5      -0.542195574656
  6      -0.220342710846
  7      -0.004968698317
  8       0.003420282312
  9      -0.001160966411
 10       0.000000000000
 11      -0.000000000000
 12      -0.000000000000
 13      -0.000000000000
 14       0.000000000000
 15       0.000000000000
 16       0.000000000000
 17      -0.000000000000
 18      -0.000000000000
 19      -0.000000000000
 20       0.000000000000
 21       0.000000000000
 22       0.000000000000
 23      -0.000000000000
 24      -0.000000000000
 25       0.000000000000
 26       0.000000000000
 27      -0.000000000000
 28      -0.000000000000
 29       0.000000000000
 30       0.000000000000
 31      -0.000000000000
 32       0.000000000000
 33      -0.000000000000
 34       0.000000000000
 35       0.000000000000
 36      -0.000000000000
 37       0.000000000000
 38       0.000000000000
 39      -0.000000000000
 40      -0.000000000000
 41       0.000000000000
 42      -0.000000000000
 43       0.000000000000
 44      -0.000000000000
 45       0.000000000000
 46       0.000000000000
 Sym=     1a
 Ene= -1.51899725934454E+00
 Spin= Alpha
 Occup= 1.000000
  1       0.000000000000
  2       0.000000000000
  3       0.000000000000
  4       0.000000000000
  5       0.000000000000
  6       0.000000000000
  7       0.000000000000
  8       0.000000000000
  9       0.000000000000
 10      -0.960871428491
 11       0.000000000000
 12      -0.000000000000
 13      -0.078991468186
 14      -0.000000000000
 15       0.000000000000
 16      -0.000875464201
 17       0.000000000000
 18      -0.000000000000
 19      -0.002006467981
 20       0.000000000000
 21      -0.000000000000
 22       0.000465624601
 23      -0.000000000000
 24       0.000000000000
 25      -0.000000000000
 26       0.000000000000
 27      -0.000000000000
 28      -0.000000000000
 29       0.000000000000
 30      -0.000000000000
 31      -0.000000000000
 32      -0.000000000000
 33       0.000000000000
 34       0.000000000000
 35       0.000000000000
 36      -0.000000000000
 37      -0.000000000000
 38       0.000000000000
 39      -0.000000000000
 40       0.000000000000
 41       0.000000000000
 42       0.000000000000
 43       0.000000000000
 44       0.000000000000
 45       0.000000000000
 46       0.000000000000
 Sym=     1a
 Ene= -1.51899725934454E+00
 Spin= Alpha
 Occup= 1.000000
  1       0.000000000000
  2       0.000000000000
  3       0.000000000000
  4       0.000000000000
  5       0.000000000000
  6       0.000000000000
  7       0.000000000000
  8       0.000000000000
  9       0.000000000000
 10       0.000000000000
 11      -0.960871428491
 12      -0.000000000000
 13       0.000000000000
 14      -0.078991468186
 15       0.000000000000
 16      -0.000000000000
 17      -0.000875464201
 18       0.000000000000
 19       0.000000000000
 20      -0.002006467981
 21       0.000000000000
 22      -0.000000000000
 23       0.000465624601
 24      -0.000000000000
 25       0.000000000000
 26      -0.000000000000
 27      -0.000000000000
 28      -0.000000000000
 29      -0.000000000000
 30      -0.000000000000
 31       0.000000000000
 32      -0.000000000000
 33      -0.000000000000
 34      -0.000000000000
 35       0.000000000000
 36      -0.000000000000
 37       0.000000000000
 38       0.000000000000
 39       0.000000000000
 40       0.000000000000
 41       0.000000000000
 42       0.000000000000
 43      -0.000000000000
 44      -0.000000000000
 45      -0.000000000000
 46      -0.000000000000
 Sym=     1a
 Ene= -1.51899725934453E+00
 Spin= Alpha
 Occup= 1.000000
  1       0.000000000000
  2       0.000000000000
  3       0.000000000000
  4       0.000000000000
  5       0.000000000000
  6       0.000000000000
  7       0.000000000000
  8       0.000000000000
  9       0.000000000000
 10       0.000000000000
 11       0.000000000000
 12       0.960871428491
 13       0.000000000000
 14      -0.000000000000
 15       0.078991468186
 16      -0.000000000000
 17      -0.000000000000
 18       0.000875464201
 19      -0.000000000000
 20       0.000000000000
 21       0.002006467981
 22       0.000000000000
 23       0.000000000000
 24      -0.000465624601
 25      -0.000000000000
 26      -0.000000000000
 27       0.000000000000
 28      -0.000000000000
 29       0.000000000000
 30       0.000000000000
 31       0.000000000000
 32      -0.000000000000
 33       0.000000000000
 34       0.000000000000
 35      -0.000000000000
 36      -0.000000000000
 37      -0.000000000000
 38      -0.000000000000
 39      -0.000000000000
 40       0.000000000000
 41      -0.000000000000
 42       0.000000000000
 43       0.000000000000
 44       0.000000000000
 45      -0.000000000000
 46       0.000000000000
 Sym=     1a
 Ene= -1.82186950852774E-01
 Spin= Alpha
 Occup= 1.000000
  1       0.035032276824
  2       0.020359330373
  3       0.002084545888
  4      -0.067090763394
  5      -0.114597724198
  6      -0.154978353218
  7       0.499868989807
  8       0.498345847328
  9       0.108531465292
 10      -0.000000000000
 11      -0.000000000000
 12      -0.000000000000
 13      -0.000000000000
 14      -0.000000000000
 15       0.000000000000
 16       0.000000000000
 17       0.000000000000
 18      -0.000000000000
 19      -0.000000000000
 20       0.000000000000
 21      -0.000000000000
 22      -0.000000000000
 23       0.000000000000
 24      -0.000000000000
 25       0.000000000000
 26       0.000000000000
 27       0.000000000000
 28      -0.000000000000
 29      -0.000000000000
 30      -0.000000000000
 31       0.000000000000
 32      -0.000000000000
 33      -0.000000000000
 34       0.000000000000
 35       0.000000000000
 36       0.000000000000
 37       0.000000000000
 38      -0.000000000000
 39       0.000000000000
 40      -0.000000000000
 41       0.000000000000
 42       0.000000000000
 43       0.000000000000
 44      -0.000000000000
 45       0.000000000000
 46       0.000000000000
 Sym=     1a
 Ene= 1.90419704652738E-02
 Spin= Alpha
 Occup= 0.000000
  1       0.000000000000
  2       0.000000000000
  3       0.000000000000
  4       0.000000000000
  5       0.000000000000
  6       0.000000000000
  7       0.000000000000
  8       0.000000000000
  9       0.000000000000
 10       0.000000000000
 11      -0.055328987125
 12       0.000000000000
 13      -0.000000000000
 14      -0.040144610199
 15      -0.000000000000
 16       0.000000000000
 17       0.151801315778
 18       0.000000000000
 19      -0.000000000000
 20      -0.025136680504
 21       0.000000000000
 22       0.000000000000
 23       0.969792946798
 24      -0.000000000000
 25      -0.000000000000
 26       0.000000000000
 27      -0.000000000000
 28      -0.000000000000
 29       0.000000000000
 30      -0.000000000000
 31       0.000000000000
 32      -0.000000000000
 33      -0.000000000000
 34      -0.000000000000
 35       0.000000000000
 36       0.000000000000
 37       0.000000000000
 38      -0.000000000000
 39       0.000000000000
 40      -0.000000000000
 41      -0.000000000000
 42      -0.000000000000
 43       0.000000000000
 44       0.000000000000
 45      -0.000000000000
 46      -0.000000000000
 Sym=     1a
 Ene= 1.90419704652742E-02
 Spin= Alpha
 Occup= 0.000000
  1       0.000000000000
  2       0.000000000000
  3       0.000000000000
  4       0.000000000000
  5       0.000000000000
  6       0.000000000000
  7       0.000000000000
  8       0.000000000000
  9       0.000000000000
 10       0.055328987125
 11      -0.000000000000
 12      -0.000000000000
 13       0.040144610199
 14       0.000000000000
 15      -0.000000000000
 16      -0.151801315778
 17      -0.000000000000
 18       0.000000000000
 19       0.025136680504
 20      -0.000000000000
 21      -0.000000000000
 22      -0.969792946798
 23       0.000000000000
 24       0.000000000000
 25      -0.000000000000
 26       0.000000000000
 27       0.000000000000
 28      -0.000000000000
 29       0.000000000000
 30      -0.000000000000
 31      -0.000000000000
 32       0.000000000000
 33      -0.000000000000
 34       0.000000000000
 35       0.000000000000
 36      -0.000000000000
 37      -0.000000000000
 38       0.000000000000
 39      -0.000000000000
 40      -0.000000000000
 41      -0.000000000000
 42      -0.000000000000
 43      -0.000000000000
 44      -0.000000000000
 45      -0.000000000000
 46       0.000000000000
 Sym=     1a
 Ene= 1.90419704652751E-02
 Spin= Alpha
 Occup= 0.000000
  1       0.000000000000
  2       0.000000000000
  3       0.000000000000
  4       0.000000000000
  5       0.000000000000
  6       0.000000000000
  7       0.000000000000
  8       0.000000000000
  9       0.000000000000
 10       0.000000000000
 11       0.000000000000
 12      -0.055328987125
 13      -0.000000000000
 14       0.000000000000
 15      -0.040144610199
 16       0.000000000000
 17      -0.000000000000
 18       0.151801315778
 19       0.000000000000
 20      -0.000000000000
 21      -0.025136680504
 22      -0.000000000000
 23      -0.000000000000
 24       0.969792946798
 25      -0.000000000000
 26       0.000000000000
 27       0.000000000000
 28       0.000000000000
 29       0.000000000000
 30       0.000000000000
 31       0.000000000000
 32      -0.000000000000
 33      -0.000000000000
 34      -0.000000000000
 35      -0.000000000000
 36      -0.000000000000
 37       0.000000000000
 38       0.000000000000
 39      -0.000000000000
 40      -0.000000000000
 41       0.000000000000
 42      -0.000000000000
 43       0.000000000000
 44      -0.000000000000
 45       0.000000000000
 46       0.000000000000
 Sym=     1a
 Ene= 3.98226049104338E-02
 Spin= Alpha
 Occup= 0.000000
  1      -0.012906401390
  2      -0.009011340107
  3       0.004652049537
  4       0.007409907640
  5       0.087927807835
  6      -0.008302378330
  7       0.554955721297
  8      -3.152635480817
  9       2.956576186516
 10       0.000000000000
 11       0.000000000000
 12       0.000000000000
 13      -0.000000000000
 14      -0.000000000000
 15      -0.000000000000
 16       0.000000000000
 17       0.000000000000
 18      -0.000000000000
 19      -0.000000000000
 20       0.000000000000
 21       0.000000000000
 22       0.000000000000
 23       0.000000000000
 24       0.000000000000
 25      -0.000000000000
 26       0.000000000000
 27       0.000000000000
 28       0.000000000000
 29       0.000000000000
 30      -0.000000000000
 31      -0.000000000000
 32       0.000000000000
 33       0.000000000000
 34       0.000000000000
 35      -0.000000000000
 36      -0.000000000000
 37      -0.000000000000
 38       0.000000000000
 39       0.000000000000
 40      -0.000000000000
 41       0.000000000000
 42       0.000000000000
 43      -0.000000000000
 44       0.000000000000
 45      -0.000000000000
 46       0.000000000000
 Sym=     1a
 Ene= 8.81202177036964E-02
 Spin= Alpha
 Occup= 0.000000
  1       0.000000000000
  2       0.000000000000
  3       0.000000000000
  4       0.000000000000
  5       0.000000000000
  6       0.000000000000
  7       0.000000000000
  8       0.000000000000
  9       0.000000000000
 10       0.108704050898
 11       0.000000000000
 12       0.000000000000
 13      -0.071383885402
 14      -0.000000000000
 15       0.000000000000
 16       0.208096449289
 17      -0.000000000000
 18      -0.000000000000
 19      -1.721419644554
 20       0.000000000000
 21       0.000000000000
 22       1.319016060812
 23       0.000000000000
 24      -0.000000000000
 25       0.000000000000
 26      -0.000000000000
 27       0.000000000000
 28       0.000000000000
 29      -0.000000000000
 30      -0.000000000000
 31       0.000000000000
 32      -0.000000000000
 33       0.000000000000
 34       0.000000000000
 35      -0.000000000000
 36       0.000000000000
 37       0.000000000000
 38      -0.000000000000
 39       0.000000000000
 40      -0.000000000000
 41      -0.000000000000
 42       0.000000000000
 43      -0.000000000000
 44      -0.000000000000
 45      -0.000000000000
 46       0.000000000000
 Sym=     1a
 Ene= 8.81202177036982E-02
 Spin= Alpha
 Occup= 0.000000
  1       0.000000000000
  2       0.000000000000
  3       0.000000000000
  4       0.000000000000
  5       0.000000000000
  6       0.000000000000
  7       0.000000000000
  8       0.000000000000
  9       0.000000000000
 10      -0.000000000000
 11      -0.108704050898
 12      -0.000000000000
 13       0.000000000000
 14       0.071383885402
 15      -0.000000000000
 16      -0.000000000000
 17      -0.208096449289
 18       0.000000000000
 19       0.000000000000
 20       1.721419644554
 21       0.000000000000
 22       0.000000000000
 23      -1.319016060812
 24      -0.000000000000
 25       0.000000000000
 26       0.000000000000
 27       0.000000000000
 28       0.000000000000
 29      -0.000000000000
 30       0.000000000000
 31       0.000000000000
 32      -0.000000000000
 33       0.000000000000
 34       0.000000000000
 35      -0.000000000000
 36      -0.000000000000
 37      -0.000000000000
 38       0.000000000000
 39      -0.000000000000
 40      -0.000000000000
 41       0.000000000000
 42       0.000000000000
 43       0.000000000000
 44      -0.000000000000
 45      -0.000000000000
 46       0.000000000000
 Sym=     1a
 Ene= 8.81202177036993E-02
 Spin= Alpha
 Occup= 0.000000
  1       0.000000000000
  2       0.000000000000
  3       0.000000000000
  4       0.000000000000
  5       0.000000000000
  6       0.000000000000
  7       0.000000000000
  8       0.000000000000
  9       0.000000000000
 10      -0.000000000000
 11      -0.000000000000
 12      -0.108704050898
 13       0.000000000000
 14      -0.000000000000
 15       0.071383885402
 16      -0.000000000000
 17       0.000000000000
 18      -0.208096449289
 19      -0.000000000000
 20       0.000000000000
 21       1.721419644554
 22       0.000000000000
 23      -0.000000000000
 24      -1.319016060812
 25       0.000000000000
 26      -0.000000000000
 27       0.000000000000
 28      -0.000000000000
 29      -0.000000000000
 30       0.000000000000
 31       0.000000000000
 32      -0.000000000000
 33       0.000000000000
 34       0.000000000000
 35      -0.000000000000
 36       0.000000000000
 37       0.000000000000
 38      -0.000000000000
 39       0.000000000000
 40       0.000000000000
 41      -0.000000000000
 42       0.000000000000
 43      -0.000000000000
 44       0.000000000000
 45      -0.000000000000
 46       0.000000000000
 Sym=     1a
 Ene= 2.04872511079211E-01
 Spin= Alpha
 Occup= 0.000000
  1      -0.039894860385
  2      -0.017909284080
  3      -0.022182511076
  4       0.141625022169
  5      -0.034842804045
  6       0.479711575794
  7      -3.966098375640
  8       5.901386504554
  9      -2.598264837245
 10      -0.000000000000
 11      -0.000000000000
 12      -0.000000000000
 13       0.000000000000
 14      -0.000000000000
 15       0.000000000000
 16       0.000000000000
 17      -0.000000000000
 18      -0.000000000000
 19       0.000000000000
 20      -0.000000000000
 21      -0.000000000000
 22      -0.000000000000
 23       0.000000000000
 24      -0.000000000000
 25       0.000000000000
 26      -0.000000000000
 27      -0.000000000000
 28      -0.000000000000
 29      -0.000000000000
 30      -0.000000000000
 31       0.000000000000
 32      -0.000000000000
 33       0.000000000000
 34      -0.000000000000
 35       0.000000000003
 36       0.000000000000
 37       0.000000000000
 38      -0.000000000001
 39      -0.000000000000
 40       0.000000000000
 41      -0.000000000000
 42      -0.000000000000
 43       0.000000000000
 44      -0.000000000000
 45       0.000000000000
 46       0.000000000000
 Sym=     1a
 Ene= 2.07081264247851E-01
 Spin= Alpha
 Occup= 0.000000
  1       0.000000000000
  2       0.000000000000
  3       0.000000000000
  4      -0.000000000000
  5       0.000000000000
  6      -0.000000000002
  7       0.000000000013
  8      -0.000000000019
  9       0.000000000008
 10      -0.000000000000
 11      -0.000000000000
 12      -0.000000000000
 13      -0.000000000000
 14      -0.000000000000
 15       0.000000000000
 16       0.000000000000
 17      -0.000000000000
 18      -0.000000000000
 19       0.000000000000
 20      -0.000000000000
 21      -0.000000000000
 22      -0.000000000000
 23      -0.000000000000
 24       0.000000000000
 25       0.004370457593
 26      -0.000000000000
 27      -0.000000000000
 28       0.000059670457
 29      -0.000000000000
 30      -0.093472888210
 31       0.000000000000
 32      -0.000000000000
 33      -0.001276198167
 34      -0.000000000000
 35       1.052918975262
 36       0.000000000000
 37       0.000000000000
 38       0.014375647222
 39      -0.000000000000
 40       0.000000000000
 41      -0.000000000000
 42      -0.000000000000
 43       0.000000000000
 44      -0.000000000000
 45       0.000000000000
 46       0.000000000000
 Sym=     1a
 Ene= 2.07081264247876E-01
 Spin= Alpha
 Occup= 0.000000
  1      -0.000000000000
  2      -0.000000000000
  3      -0.000000000000
  4       0.000000000000
  5      -0.000000000000
  6       0.000000000001
  7      -0.000000000005
  8       0.000000000007
  9      -0.000000000003
 10      -0.000000000000
 11       0.000000000000
 12       0.000000000000
 13      -0.000000000000
 14      -0.000000000000
 15      -0.000000000000
 16       0.000000000000
 17       0.000000000000
 18      -0.000000000000
 19      -0.000000000000
 20       0.000000000000
 21      -0.000000000000
 22      -0.000000000000
 23      -0.000000000000
 24       0.000000000000
 25      -0.000059670457
 26       0.000000000000
 27      -0.000000000000
 28       0.004370457593
 29      -0.000000000000
 30       0.001276198167
 31       0.000000000000
 32       0.000000000000
 33      -0.093472888210
 34      -0.000000000000
 35      -0.014375647222
 36      -0.000000000000
 37      -0.000000000000
 38       1.052918975262
 39       0.000000000000
 40      -0.000000000000
 41       0.000000000000
 42       0.000000000000
 43       0.000000000000
 44       0.000000000000
 45      -0.000000000000
 46       0.000000000000
 Sym=     1a
 Ene= 2.07081264250869E-01
 Spin= Alpha
 Occup= 0.000000
  1       0.000000000000
  2       0.000000000000
  3       0.000000000000
  4       0.000000000000
  5       0.000000000000
  6       0.000000000000
  7       0.000000000000
  8       0.000000000000
  9       0.000000000000
 10       0.000000000000
 11      -0.000000000000
 12      -0.000000000000
 13       0.000000000000
 14       0.000000000000
 15       0.000000000000
 16      -0.000000000000
 17      -0.000000000000
 18      -0.000000000000
 19       0.000000000000
 20      -0.000000000000
 21       0.000000000000
 22       0.000000000000
 23       0.000000000000
 24      -0.000000000000
 25       0.000000000000
 26      -0.000000000000
 27       0.000000000000
 28      -0.000000000000
 29       0.004370864918
 30      -0.000000000000
 31       0.000000000000
 32       0.000000000000
 33      -0.000000000000
 34      -0.093481599852
 35      -0.000000000000
 36      -0.000000000000
 37      -0.000000000000
 38       0.000000000000
 39       1.053017107028
 40       0.000000000000
 41       0.000000000000
 42      -0.000000000000
 43      -0.000000000000
 44       0.000000000000
 45       0.000000000000
 46       0.000000000000
 Sym=     1a
 Ene= 2.07081264250870E-01
 Spin= Alpha
 Occup= 0.000000
  1       0.000000000000
  2       0.000000000000
  3       0.000000000000
  4       0.000000000000
  5       0.000000000000
  6       0.000000000000
  7       0.000000000000
  8       0.000000000000
  9       0.000000000000
 10       0.000000000000
 11       0.000000000000
 12       0.000000000000
 13      -0.000000000000
 14       0.000000000000
 15      -0.000000000000
 16       0.000000000000
 17       0.000000000000
 18       0.000000000000
 19      -0.000000000000
 20       0.000000000000
 21       0.000000000000
 22       0.000000000000
 23       0.000000000000
 24      -0.000000000000
 25      -0.000000000000
 26       0.004370864918
 27      -0.000000000000
 28       0.000000000000
 29       0.000000000000
 30      -0.000000000000
 31      -0.093481599852
 32       0.000000000000
 33       0.000000000000
 34       0.000000000000
 35       0.000000000000
 36       1.053017107028
 37       0.000000000000
 38      -0.000000000000
 39      -0.000000000000
 40       0.000000000000
 41      -0.000000000000
 42       0.000000000000
 43      -0.000000000000
 44       0.000000000000
 45      -0.000000000000
 46       0.000000000000
 Sym=     1a
 Ene= 2.07081264250870E-01
 Spin= Alpha
 Occup= 0.000000
  1       0.000000000000
  2       0.000000000000
  3       0.000000000000
  4       0.000000000000
  5       0.000000000000
  6       0.000000000000
  7       0.000000000000
  8       0.000000000000
  9       0.000000000000
 10       0.000000000000
 11      -0.000000000000
 12      -0.000000000000
 13       0.000000000000
 14      -0.000000000000
 15      -0.000000000000
 16       0.000000000000
 17      -0.000000000000
 18      -0.000000000000
 19      -0.000000000000
 20      -0.000000000000
 21       0.000000000000
 22       0.000000000000
 23       0.000000000000
 24      -0.000000000000
 25       0.000000000000
 26      -0.000000000000
 27       0.004370864918
 28       0.000000000000
 29      -0.000000000000
 30      -0.000000000000
 31      -0.000000000000
 32      -0.093481599852
 33       0.000000000000
 34       0.000000000000
 35       0.000000000000
 36       0.000000000000
 37       1.053017107028
 38      -0.000000000000
 39      -0.000000000000
 40      -0.000000000000
 41       0.000000000000
 42       0.000000000000
 43      -0.000000000000
 44      -0.000000000000
 45       0.000000000000
 46       0.000000000000
 Sym=     1a
 Ene= 3.38166833884342E-01
 Spin= Alpha
 Occup= 0.000000
  1       0.000000000000
  2       0.000000000000
  3       0.000000000000
  4       0.000000000000
  5       0.000000000000
  6       0.000000000000
  7       0.000000000000
  8       0.000000000000
  9       0.000000000000
 10       0.000000000000
 11      -0.190282073535
 12      -0.000000000000
 13       0.000000000000
 14      -0.518749615877
 15       0.000000000000
 16      -0.000000000000
 17       2.206558324271
 18      -0.000000000000
 19       0.000000000000
 20      -1.944869672690
 21      -0.000000000000
 22      -0.000000000000
 23       0.750481008747
 24       0.000000000000
 25      -0.000000000000
 26       0.000000000000
 27       0.000000000000
 28       0.000000000000
 29      -0.000000000000
 30       0.000000000000
 31      -0.000000000000
 32       0.000000000000
 33       0.000000000000
 34       0.000000000000
 35      -0.000000000000
 36       0.000000000000
 37      -0.000000000000
 38      -0.000000000000
 39      -0.000000000000
 40       0.000000000000
 41      -0.000000000000
 42      -0.000000000000
 43      -0.000000000000
 44       0.000000000000
 45       0.000000000000
 46       0.000000000000
 Sym=     1a
 Ene= 3.38166833884346E-01
 Spin= Alpha
 Occup= 0.000000
  1       0.000000000000
  2       0.000000000000
  3       0.000000000000
  4       0.000000000000
  5       0.000000000000
  6       0.000000000000
  7       0.000000000000
  8       0.000000000000
  9       0.000000000000
 10       0.190282073535
 11      -0.000000000000
 12      -0.000000000000
 13       0.518749615877
 14       0.000000000000
 15      -0.000000000000
 16      -2.206558324271
 17       0.000000000000
 18       0.000000000000
 19       1.944869672690
 20      -0.000000000000
 21       0.000000000000
 22      -0.750481008747
 23      -0.000000000000
 24       0.000000000000
 25      -0.000000000000
 26      -0.000000000000
 27       0.000000000000
 28      -0.000000000000
 29       0.000000000000
 30       0.000000000000
 31       0.000000000000
 32       0.000000000000
 33       0.000000000000
 34       0.000000000000
 35      -0.000000000000
 36      -0.000000000000
 37      -0.000000000000
 38      -0.000000000000
 39       0.000000000000
 40       0.000000000000
 41       0.000000000000
 42      -0.000000000000
 43       0.000000000000
 44       0.000000000000
 45       0.000000000000
 46       0.000000000000
 Sym=     1a
 Ene= 3.38166833884356E-01
 Spin= Alpha
 Occup= 0.000000
  1       0.000000000000
  2       0.000000000000
  3       0.000000000000
  4       0.000000000000
  5       0.000000000000
  6       0.000000000000
  7       0.000000000000
  8       0.000000000000
  9       0.000000000000
 10      -0.000000000000
 11       0.000000000000
 12       0.190282073535
 13       0.000000000000
 14      -0.000000000000
 15       0.518749615877
 16      -0.000000000000
 17       0.000000000000
 18      -2.206558324271
 19      -0.000000000000
 20       0.000000000000
 21       1.944869672690
 22       0.000000000000
 23      -0.000000000000
 24      -0.750481008747
 25       0.000000000000
 26      -0.000000000000
 27       0.000000000000
 28      -0.000000000000
 29      -0.000000000000
 30      -0.000000000000
 31      -0.000000000000
 32       0.000000000000
 33       0.000000000000
 34       0.000000000000
 35       0.000000000000
 36       0.000000000000
 37       0.000000000000
 38       0.000000000000
 39       0.000000000000
 40      -0.000000000000
 41       0.000000000000
 42      -0.000000000000
 43      -0.000000000000
 44      -0.000000000000
 45       0.000000000000
 46       0.000000000000
 Sym=     1a
 Ene= 5.45449950091849E-01
 Spin= Alpha
 Occup= 0.000000
  1       0.000000000000
  2       0.000000000000
  3       0.000000000000
  4       0.000000000000
  5       0.000000000000
  6       0.000000000000
  7       0.000000000000
  8       0.000000000000
  9       0.000000000000
 10      -0.000000000000
 11      -0.000000000000
 12      -0.000000000000
 13       0.000000000000
 14      -0.000000000000
 15       0.000000000000
 16      -0.000000000000
 17      -0.000000000000
 18      -0.000000000000
 19       0.000000000000
 20       0.000000000000
 21       0.000000000000
 22      -0.000000000000
 23      -0.000000000000
 24       0.000000000000
 25       0.000000000000
 26      -0.000000000000
 27       0.000000000000
 28       0.000000000000
 29      -0.000000000000
 30       0.000000000000
 31       0.000000000000
 32      -0.000000000000
 33      -0.000000000000
 34      -0.000000000000
 35       0.000000000000
 36      -0.000000000000
 37      -0.000000000000
 38      -0.000000000000
 39       0.000000000000
 40      -0.000000000000
 41      -0.000000000000
 42      -0.590414392005
 43       0.000000000000
 44       0.000000000000
 45      -0.000000000000
 46       0.807100269925
 Sym=     1a