
                                 *****************
                                 * O   R   C   A *
                                 *****************

           --- An Ab Initio, DFT and Semiempirical electronic structure package ---

                  #######################################################
                  #                        -***-                        #
                  #  Department of molecular theory and spectroscopy    #
                  #              Directorship: Frank Neese              #
                  # Max Planck Institute for Chemical Energy Conversion #
                  #                  D-45470 Muelheim/Ruhr              #
                  #                       Germany                       #
                  #                                                     #
                  #                  All rights reserved                #
                  #                        -***-                        #
                  #######################################################


                         Program Version 4.0.1.2 - RELEASE -


 With contributions from (in alphabetic order):
   Daniel Aravena         : Magnetic Properties
   Michael Atanasov       : Ab Initio Ligand Field Theory
   Ute Becker             : Parallelization
   Martin Brehm           : Molecular dynamics
   Dmytro Bykov           : SCF Hessian
   Vijay G. Chilkuri      : MRCI spin determinant printing
   Dipayan Datta          : RHF DLPNO-CCSD density
   Achintya Kumar Dutta   : EOM-CC, STEOM-CC
   Dmitry Ganyushin       : Spin-Orbit,Spin-Spin,Magnetic field MRCI
   Yang Guo               : DLPNO-NEVPT2, CIM, IAO-localization
   Andreas Hansen         : Spin unrestricted coupled pair/coupled cluster methods
   Lee Huntington         : MR-EOM, pCC
   Robert Izsak           : Overlap fitted RIJCOSX, COSX-SCS-MP3, EOM
   Christian Kollmar      : KDIIS, OOCD, Brueckner-CCSD(T), CCSD density
   Simone Kossmann        : Meta GGA functionals, TD-DFT gradient, OOMP2, MP2 Hessian
   Martin Krupicka        : AUTO-CI
   Dagmar Lenk            : GEPOL surface
   Dimitrios Liakos       : Extrapolation schemes; parallel MDCI
   Dimitrios Manganas     : ROCIS; embedding schemes
   Dimitrios Pantazis     : SARC Basis sets
   Taras Petrenko         : DFT Hessian,TD-DFT gradient, ASA, ECA, R-Raman, ABS, FL, XAS/XES, NRVS
   Peter Pinski           : DLPNO-MP2
   Christoph Reimann      : Effective Core Potentials
   Marius Retegan         : Local ZFS, SOC
   Christoph Riplinger    : Optimizer, TS searches, QM/MM, DLPNO-CCSD(T), (RO)-DLPNO pert. Triples
   Tobias Risthaus        : Range-separated hybrids, TD-DFT gradient, RPA, STAB
   Michael Roemelt        : Restricted open shell CIS
   Masaaki Saitow         : Open-shell DLPNO
   Barbara Sandhoefer     : DKH picture change effects
   Kantharuban Sivalingam : CASSCF convergence, NEVPT2, FIC-MRCI
   Georgi Stoychev        : AutoAux
   Boris Wezisla          : Elementary symmetry handling
   Frank Wennmohs         : Technical directorship


 We gratefully acknowledge several colleagues who have allowed us to
 interface, adapt or use parts of their codes:
   Stefan Grimme, W. Hujo, H. Kruse,             : VdW corrections, initial TS optimization,
                  C. Bannwarth                     DFT functionals, gCP, sTDA/sTD-DF
   Ed Valeev                                     : LibInt (2-el integral package), F12 methods
   Garnet Chan, S. Sharma, J. Yang, R. Olivares  : DMRG
   Ulf Ekstrom                                   : XCFun DFT Library
   Mihaly Kallay                                 : mrcc  (arbitrary order and MRCC methods)
   Andreas Klamt, Michael Diedenhofen            : otool_cosmo (COSMO solvation model)
   Jiri Pittner, Ondrej Demel                    : Mk-CCSD
   Frank Weinhold                                : gennbo (NPA and NBO analysis)
   Christopher J. Cramer and Donald G. Truhlar   : smd solvation model


 Your calculation uses the libint2 library for the computation of 2-el integrals
 For citations please refer to: http://libint.valeyev.net

 This ORCA versions uses:
   CBLAS   interface :  Fast vector & matrix operations
   LAPACKE interface :  Fast linear algebra routines
   SCALAPACK package :  Parallel linear algebra routines




*****************************************
The coordinations will be read from file: ../../../../chem_database/H.xyz
*****************************************


Your calculation utilizes the basis: def2-QZVP
   F. Weigend and R. Ahlrichs, Phys. Chem. Chem. Phys. 7, 3297 (2005).

================================================================================
                                        WARNINGS
                       Please study these warnings very carefully!
================================================================================

Warning: TCutStore was < 0. Adjusted to Thresh (uncritical)

WARNING: your system is open-shell and RHF/RKS was chosen
  ===> : WILL SWITCH to UHF/UKS


INFO   : the flag for use of LIBINT has been found!

================================================================================
                                       INPUT FILE
================================================================================
NAME = mol.inp
|  1> # ================================================================
|  2> # Orca input file
|  3> # ================================================================
|  4> ! HF def2-QZVP VeryTightSCF UseSym
|  5> 
|  6> ! PAL4
|  7> 
|  8> %scf
|  9>   STABPerform true
| 10> #  STABRestartUHFifUnstable true
| 11> end
| 12> 
| 13> 
| 14> 
| 15> * xyzfile 0 2 ../../../../chem_database/H.xyz
| 16> 
| 17>                          ****END OF INPUT****
================================================================================

------------------------------------------------------------------------------
                            SYMMETRY HANDLING SETUP
------------------------------------------------------------------------------

------------------
SYMMETRY DETECTION
------------------
Preparing Data                    ... done
Detection Threshold:    SymThresh ... 1.0000e-04

Point Group will now be determined:
Moving molecule to center of mass ... done

POINT GROUP                       ... Kh

The coordinates will now be cleaned:
Structure cleanup requested       ... yes
Selected point group              ... Kh
Cleaning Tolerance      SymThresh ... 1.0000e-04

Cleaning coordinates              ... done

-----------------------------------------------
SYMMETRY-PERFECTED CARTESIAN COORDINATES (A.U.)
-----------------------------------------------
Warning (ORCA_SYM): Coordinates were not cleaned so far!

------------------
SYMMETRY REDUCTION
------------------
ORCA supports only abelian point groups.
It is now checked, if the determined point group is supported:
Point Group ( Kh    ) is          ... NOT supported
Reducing to abelian subgroup      ... D2h

(Re)building abelian point group:
Creating Character Table          ... done
Making direct product table       ... done
Constructing symmetry operations  ... done
Creating atom transfer table      ... done
Creating asymmetric unit          ... done

----------------------
ASYMMETRIC UNIT IN D2h
----------------------
  #  AT     MASS              COORDS (A.U.)             BAS
   0 H    1.0080   0.00000000   0.00000000   0.00000000   0

----------------------
SYMMETRY ADAPTED BASIS
----------------------
The coefficients for the symmetry adapted linear combinations (SALCS)
of basis functions will now be computed:
Number of basis functions         ...    30
Preparing memory                  ... done
Constructing Gamma(red)           ... done
Reducing Gamma(red)               ... done
Constructing SALCs                ... done
Checking SALC integrity           ... nothing suspicious
Normalizing SALCs                 ... done

Storing the symmetry object:
Symmetry file                     ... mol.sym.tmp
Writing symmetry information      ... done

                       ****************************
                       * Single Point Calculation *
                       ****************************

---------------------------------
CARTESIAN COORDINATES (ANGSTROEM)
---------------------------------
  H      0.000000    0.000000    0.000000

----------------------------
CARTESIAN COORDINATES (A.U.)
----------------------------
  NO LB      ZA    FRAG     MASS         X           Y           Z
   0 H     1.0000    0     1.008    0.000000    0.000000    0.000000

--------------------------------
INTERNAL COORDINATES (ANGSTROEM)
--------------------------------
 H      0   0   0     0.000000000000     0.00000000     0.00000000

---------------------------
INTERNAL COORDINATES (A.U.)
---------------------------
 H      0   0   0     0.000000000000     0.00000000     0.00000000

---------------------
BASIS SET INFORMATION
---------------------
There are 1 groups of distinct atoms

 Group   1 Type H   : 7s3p2d1f contracted to 4s3p2d1f pattern {4111/111/11/1}

Atom   0H    basis set group =>   1


           ************************************************************
           *        Program running with 4 parallel MPI-processes     *
           *              working on a common directory               *
           ************************************************************
------------------------------------------------------------------------------
                           ORCA GTO INTEGRAL CALCULATION
------------------------------------------------------------------------------

                         BASIS SET STATISTICS AND STARTUP INFO

 # of primitive gaussian shells          ...   13
 # of primitive gaussian functions       ...   33
 # of contracted shells                  ...   10
 # of contracted basis functions         ...   30
 Highest angular momentum                ...    3
 Maximum contraction depth               ...    4
 Integral package used                   ... LIBINT
 Integral threshhold            Thresh   ...  1.000e-12
 Primitive cut-off              TCut     ...  1.000e-14


------------------------------ INTEGRAL EVALUATION ----------------------------


 * One electron integrals 
 Pre-screening matrix                    ... done
 Shell pair data                         ... done (   0.000 sec)



           ************************************************************
           *        Program running with 4 parallel MPI-processes     *
           *              working on a common directory               *
           ************************************************************
-------------------------------------------------------------------------------
                                 ORCA SCF
-------------------------------------------------------------------------------

------------
SCF SETTINGS
------------
Hamiltonian:
 Ab initio Hamiltonian  Method          .... Hartree-Fock(GTOs)


General Settings:
 Integral files         IntName         .... mol
 Hartree-Fock type      HFTyp           .... UHF
 Total Charge           Charge          ....    0
 Multiplicity           Mult            ....    2
 Number of Electrons    NEL             ....    1
 Basis Dimension        Dim             ....   30
 Nuclear Repulsion      ENuc            ....      0.0000000000 Eh

 Symmetry handling      UseSym         .... ON
 Point group                           .... D2h
 Used point group                      .... D2h
 Number of irreps                      .... 8
   Irrep   Ag has    8 symmetry adapted basis functions (ofs=   0)
   Irrep  B1g has    2 symmetry adapted basis functions (ofs=   8)
   Irrep  B2g has    2 symmetry adapted basis functions (ofs=  10)
   Irrep  B3g has    2 symmetry adapted basis functions (ofs=  12)
   Irrep   Au has    1 symmetry adapted basis functions (ofs=  14)
   Irrep  B1u has    5 symmetry adapted basis functions (ofs=  15)
   Irrep  B2u has    5 symmetry adapted basis functions (ofs=  20)
   Irrep  B3u has    5 symmetry adapted basis functions (ofs=  25)

Convergence Acceleration:
 DIIS                   CNVDIIS         .... on
   Start iteration      DIISMaxIt       ....    12
   Startup error        DIISStart       ....  0.200000
   # of expansion vecs  DIISMaxEq       ....     5
   Bias factor          DIISBfac        ....   1.050
   Max. coefficient     DIISMaxC        ....  10.000
 Newton-Raphson         CNVNR           .... off
 SOSCF                  CNVSOSCF        .... off
 Level Shifting         CNVShift        .... on
   Level shift para.    LevelShift      ....    0.2500
   Turn off err/grad.   ShiftErr        ....    0.0010
 Zerner damping         CNVZerner       .... off
 Static damping         CNVDamp         .... on
   Fraction old density DampFac         ....    0.7000
   Max. Damping (<1)    DampMax         ....    0.9800
   Min. Damping (>=0)   DampMin         ....    0.0000
   Turn off err/grad.   DampErr         ....    0.1000
 Fernandez-Rico         CNVRico         .... off

SCF Procedure:
 Maximum # iterations   MaxIter         ....   125
 SCF integral mode      SCFMode         .... Direct
   Integral package                     .... LIBINT
 Reset frequeny         DirectResetFreq ....    20
 Integral Threshold     Thresh          ....  1.000e-12 Eh
 Primitive CutOff       TCut            ....  1.000e-14 Eh

Convergence Tolerance:
 Convergence Check Mode ConvCheckMode   .... Total+1el-Energy
 Convergence forced     ConvForced      .... 0
 Energy Change          TolE            ....  1.000e-09 Eh
 1-El. energy change                    ....  1.000e-06 Eh
 DIIS Error             TolErr          ....  1.000e-08


Diagonalization of the overlap matrix:
Smallest eigenvalue                        ... 3.391e-02
Time for diagonalization                   ...    0.007 sec
Threshold for overlap eigenvalues          ... 1.000e-08
Number of eigenvalues below threshold      ... 0
Time for construction of square roots      ...    0.000 sec
Producing symmetrization matrix            ... done (   0.000 sec)
Total time needed                          ...    0.007 sec

-------------------
DFT GRID GENERATION
-------------------

General Integration Accuracy     IntAcc      ...  4.340
Radial Grid Type                 RadialGrid  ... Gauss-Chebyshev
Angular Grid (max. acc.)         AngularGrid ... Lebedev-110
Angular grid pruning method      GridPruning ... 3 (G Style)
Weight generation scheme         WeightScheme... Becke
Basis function cutoff            BFCut       ...    1.0000e-12
Integration weight cutoff        WCut        ...    1.0000e-14
Grids for H and He will be reduced by one unit

# of grid points (after initial pruning)     ...    794 (   0.0 sec)
# of grid points (after weights+screening)   ...    794 (   0.0 sec)
Grid point division into batches done        ...    0.0 sec
Reduced shell lists constructed in    0.0 sec

Total number of grid points                  ...      794
Total number of batches                      ...       13
Average number of points per batch           ...       61
Average number of grid points per atom       ...      794
Average number of shells per batch           ...     8.00 (80.00%)
Average number of basis functions per batch  ...    24.00 (80.00%)
Average number of large shells per batch     ...     8.00 (100.00%)
Average number of large basis fcns per batch ...    24.00 (100.00%)
Maximum spatial batch extension              ...  12.73, 21.59, 21.59 au
Average spatial batch extension              ...   2.80,  5.45,  6.64 au

Time for grid setup =    0.010 sec

------------------------------
INITIAL GUESS: MODEL POTENTIAL
------------------------------
Loading Hartree-Fock densities                     ... done
Calculating cut-offs                               ... done
Setting up the integral package                    ... done
Initializing the effective Hamiltonian             ... done
Starting the Coulomb interaction                   ... done (   0.0 sec)
Reading the grid                                   ... done
Mapping shells                                     ... done
Starting the XC term evaluation                    ... done (   0.0 sec)
done (   0.0 sec)
Diagonalizing the Hamiltonian                      ... done (   0.0 sec)
Back transforming the eigenvectors                 ... done (   0.0 sec)
Now organizing SCF variables                       ... done
The symmetry of the initial guess is 2-Ag
Irrep occupations for operator 0
    Ag -    1
   B1g -    0
   B2g -    0
   B3g -    0
    Au -    0
   B1u -    0
   B2u -    0
   B3u -    0
Irrep occupations for operator 1
    Ag -    0
   B1g -    0
   B2g -    0
   B3g -    0
    Au -    0
   B1u -    0
   B2u -    0
   B3u -    0
                      ------------------
                      INITIAL GUESS DONE (   0.2 sec)
                      ------------------
--------------
SCF ITERATIONS
--------------
ITER       Energy         Delta-E        Max-DP      RMS-DP      [F,P]     Damp
               ***  Starting incremental Fock matrix formation  ***
  0     -0.4947260149   0.000000000000 0.01368702  0.00042126  0.0438290 0.7000
  1     -0.4956883985  -0.000962383680 0.01416624  0.00045555  0.0376751 0.7000
                               ***Turning on DIIS***
  2     -0.4965762269  -0.000887828341 0.04054193  0.00134118  0.0314340 0.0000
  3     -0.4997549661  -0.003178739223 0.01734463  0.00067517  0.0134503 0.0000
  4     -0.5000099003  -0.000254934168 0.00620983  0.00022525  0.0036173 0.0000
  5     -0.4999912453   0.000018654960 0.00259707  0.00008235  0.0010146 0.0000
  6     -0.4999826935   0.000008551867 0.00149769  0.00004507  0.0003253 0.0000
  7     -0.4999830828  -0.000000389312 0.00018847  0.00000541  0.0000264 0.0000
  8     -0.4999832972  -0.000000214430 0.00000864  0.00000025  0.0000015 0.0000
                 **** Energy Check signals convergence ****

               *****************************************************
               *                     SUCCESS                       *
               *           SCF CONVERGED AFTER   9 CYCLES          *
               *****************************************************


------------------------------------------------------------------------------
                          SCF STABILITY ANALYSIS                              
------------------------------------------------------------------------------


                       ****Iteration    0****

   Memory handling for direct AO based CIS:
   Memory per vector needed      ...     1 MB
   Memory needed                 ...     0 MB
   Memory available              ...  1024 MB
   Number of vectors per batch   ...  1024
   Number of batches             ...     1
   Time for densities:     0.000
   Using LibInt in JK Direct
   Time for J+K (Direct):     0.078
   Time for Sigma-Completion:     0.000
   Lowest Energy          :    -0.005575727195
   Maximum Energy change  :     0.259924468109 (vector 2)
   Maximum residual norm  :     0.026441162590

                       ****Iteration    1****
   Time for densities:     0.000
   Using LibInt in JK Direct
   Time for J+K (Direct):     0.072
   Time for Sigma-Completion:     0.000
   Lowest Energy          :    -0.026162988541
   Maximum Energy change  :     0.051908651870 (vector 2)
   Maximum residual norm  :     0.000388467789

                       ****Iteration    2****
   Time for densities:     0.000
   Using LibInt in JK Direct
   Time for J+K (Direct):     0.072
   Time for Sigma-Completion:     0.000
   Lowest Energy          :    -0.026367745880
   Maximum Energy change  :     0.000204757339 (vector 0)
   Maximum residual norm  :     0.000002765304

      *** CONVERGENCE OF RESIDUAL NORM REACHED ***

----------------------------- 
SCF STABILITY ANALYSIS RESULT 
----------------------------- 

UHF/UKS->UHF/UKS - singlet - internal

   Root    Eigenvalue (au) 
     0      -0.026368 
     1       0.207913 
     2       0.207914 

Stability Analysis indicates an UNSTABLE HF/KS wave function with one negative eigenvalue.

Since this is UHF/UKS, we will restart the SCF using a new guess based on the eigenvector 
associated with the negative eigenvalue. Because there is no guarantee that the restart   
will result in a stable solution, the user should check the stability of the resulting    
wave function in a separate calculation using the MOREAD guess feature.

Obtain new guess               ... done 

Total time for performing the stability analysis:     0.225sec

--------------------------
SCF ITERATIONS (restarted)
--------------------------
ITER       Energy         Delta-E        Max-DP      RMS-DP      [F,P]     Damp
               ***  Starting incremental Fock matrix formation  ***
  0     -0.4893134331   0.000000000000 0.01423229  0.00045429  0.0745513 0.7000
  1     -0.4913109621  -0.001997529058 0.01540317  0.00048296  0.0625738 0.7000
                               ***Turning on DIIS***
  2     -0.4931261435  -0.001815181325 0.04518231  0.00143067  0.0512903 0.0000
  3     -0.4994976120  -0.006371468488 0.02028789  0.00074753  0.0197428 0.0000
  4     -0.4999960502  -0.000498438261 0.00756848  0.00029575  0.0055652 0.0000
  5     -0.4999773901   0.000018660073 0.00424195  0.00013635  0.0017867 0.0000
  6     -0.4999782101  -0.000000819935 0.00269356  0.00008168  0.0006009 0.0000
  7     -0.4999829461  -0.000004736054 0.00027334  0.00000784  0.0000373 0.0000
  8     -0.4999832947  -0.000000348585 0.00001402  0.00000040  0.0000017 0.0000
  9     -0.4999832978  -0.000000003072 0.00000012  0.00000000  0.0000000 0.0000
                 **** Energy Check signals convergence ****

               *****************************************************
               *                     SUCCESS                       *
               *           SCF CONVERGED AFTER  10 CYCLES          *
               *****************************************************


----------------
TOTAL SCF ENERGY
----------------

Total Energy       :           -0.49998330 Eh             -13.60524 eV

Components:
Nuclear Repulsion  :            0.00000000 Eh               0.00000 eV
Electronic Energy  :           -0.49998330 Eh             -13.60524 eV
One Electron Energy:           -0.49998330 Eh             -13.60524 eV
Two Electron Energy:           -0.00000000 Eh              -0.00000 eV

Virial components:
Potential Energy   :           -0.99996659 Eh             -27.21047 eV
Kinetic Energy     :            0.49998330 Eh              13.60524 eV
Virial Ratio       :            2.00000000


---------------
SCF CONVERGENCE
---------------

  Last Energy change         ...   -5.8619e-12  Tolerance :   1.0000e-09
  Last MAX-Density change    ...    1.8429e-08  Tolerance :   1.0000e-08
  Last RMS-Density change    ...    5.0279e-10  Tolerance :   1.0000e-09
  Last DIIS Error            ...    1.5514e-09  Tolerance :   1.0000e-08

             **** THE GBW FILE WAS UPDATED (mol.gbw) ****
             **** DENSITY FILE WAS UPDATED (mol.scfp.tmp) ****
             **** ENERGY FILE WAS UPDATED (mol.en.tmp) ****

     --------------------------------------------------------------------
                                      WARNING
     A stability analysis of the first UHF/UKS SCF solution was performed
     and an instability detected. The result was used as a guess for
     a second SCF, which has converged. There is no guarantee that the
     current solution is stable - it is up to you to rerun the stability
     analysis using the now stored solution as a guess and verify.
     --------------------------------------------------------------------

----------------------
UHF SPIN CONTAMINATION
----------------------

Expectation value of <S**2>     :     0.750000
Ideal value S*(S+1) for S=0.5   :     0.750000
Deviation                       :     0.000000

----------------
ORBITAL ENERGIES
----------------
                 SPIN UP ORBITALS
  NO   OCC          E(Eh)            E(eV)    Irrep 
   0   1.0000      -0.499983       -13.6052    1-Ag
   1   0.0000       0.218667         5.9502    2-Ag
   2   0.0000       0.531929        14.4745    1-B1u
   3   0.0000       0.531929        14.4745    1-B3u
   4   0.0000       0.531929        14.4745    1-B2u
   5   0.0000       1.167071        31.7576    3-Ag
   6   0.0000       2.068148        56.2772    4-Ag
   7   0.0000       2.068148        56.2772    5-Ag
   8   0.0000       2.068148        56.2772    1-B3g
   9   0.0000       2.068148        56.2772    1-B2g
  10   0.0000       2.068148        56.2772    1-B1g
  11   0.0000       2.350196        63.9521    2-B2u
  12   0.0000       2.350196        63.9521    2-B1u
  13   0.0000       2.350196        63.9521    2-B3u
  14   0.0000       5.314188       144.6064    6-Ag
  15   0.0000       6.055028       164.7657    3-B2u
  16   0.0000       6.055028       164.7657    1-Au
  17   0.0000       6.055028       164.7657    4-B2u
  18   0.0000       6.055028       164.7657    3-B3u
  19   0.0000       6.055028       164.7657    3-B1u
  20   0.0000       6.055028       164.7657    4-B3u
  21   0.0000       6.055028       164.7657    4-B1u
  22   0.0000       7.763351       211.2515    5-B2u
  23   0.0000       7.763351       211.2515    5-B1u
  24   0.0000       7.763351       211.2515    5-B3u
  25   0.0000       8.120879       220.9804    2-B3g
  26   0.0000       8.120879       220.9804    2-B1g
  27   0.0000       8.120879       220.9804    2-B2g
  28   0.0000       8.120879       220.9804    7-Ag
  29   0.0000       8.120879       220.9804    8-Ag

                 SPIN DOWN ORBITALS
  NO   OCC          E(Eh)            E(eV)    Irrep 
   0   0.0000       0.042594         1.1591    1-Ag
   1   0.0000       0.329981         8.9793    2-Ag
   2   0.0000       0.607666        16.5354    1-B1u
   3   0.0000       0.607666        16.5354    1-B3u
   4   0.0000       0.607666        16.5354    1-B2u
   5   0.0000       1.285809        34.9886    3-Ag
   6   0.0000       2.112936        57.4959    4-Ag
   7   0.0000       2.112936        57.4959    5-Ag
   8   0.0000       2.112936        57.4959    1-B3g
   9   0.0000       2.112936        57.4959    1-B2g
  10   0.0000       2.112936        57.4959    1-B1g
  11   0.0000       2.431986        66.1777    2-B2u
  12   0.0000       2.431986        66.1777    2-B1u
  13   0.0000       2.431986        66.1777    2-B3u
  14   0.0000       5.407309       147.1404    6-Ag
  15   0.0000       6.086729       165.6283    3-B2u
  16   0.0000       6.086729       165.6283    1-Au
  17   0.0000       6.086729       165.6283    4-B2u
  18   0.0000       6.086729       165.6283    3-B3u
  19   0.0000       6.086729       165.6283    3-B1u
  20   0.0000       6.086729       165.6283    4-B3u
  21   0.0000       6.086729       165.6283    4-B1u
  22   0.0000       7.823064       212.8764    5-B2u
  23   0.0000       7.823064       212.8764    5-B1u
  24   0.0000       7.823064       212.8764    5-B3u
  25   0.0000       8.165032       222.1818    2-B3g
  26   0.0000       8.165032       222.1818    2-B1g
  27   0.0000       8.165032       222.1818    2-B2g
  28   0.0000       8.165032       222.1818    7-Ag
  29   0.0000       8.165032       222.1818    8-Ag

                    ********************************
                    * MULLIKEN POPULATION ANALYSIS *
                    ********************************

--------------------------------------------
MULLIKEN ATOMIC CHARGES AND SPIN POPULATIONS
--------------------------------------------
   0 H :   -0.000000    1.000000
Sum of atomic charges         :   -0.0000000
Sum of atomic spin populations:    1.0000000

-----------------------------------------------------
MULLIKEN REDUCED ORBITAL CHARGES AND SPIN POPULATIONS
-----------------------------------------------------
CHARGE
  0 H s       :     1.000000  s :     1.000000
      pz      :     0.000000  p :     0.000000
      px      :     0.000000
      py      :     0.000000
      dz2     :     0.000000  d :     0.000000
      dxz     :     0.000000
      dyz     :     0.000000
      dx2y2   :     0.000000
      dxy     :     0.000000
      f0      :     0.000000  f :     0.000000
      f+1     :     0.000000
      f-1     :     0.000000
      f+2     :     0.000000
      f-2     :     0.000000
      f+3     :     0.000000
      f-3     :     0.000000

SPIN
  0 H s       :     1.000000  s :     1.000000
      pz      :     0.000000  p :     0.000000
      px      :     0.000000
      py      :     0.000000
      dz2     :     0.000000  d :     0.000000
      dxz     :     0.000000
      dyz     :     0.000000
      dx2y2   :     0.000000
      dxy     :     0.000000
      f0      :     0.000000  f :     0.000000
      f+1     :     0.000000
      f-1     :     0.000000
      f+2     :     0.000000
      f-2     :     0.000000
      f+3     :     0.000000
      f-3     :     0.000000


                     *******************************
                     * LOEWDIN POPULATION ANALYSIS *
                     *******************************

-------------------------------------------
LOEWDIN ATOMIC CHARGES AND SPIN POPULATIONS
-------------------------------------------
   0 H :    0.000000    1.000000

----------------------------------------------------
LOEWDIN REDUCED ORBITAL CHARGES AND SPIN POPULATIONS
----------------------------------------------------
CHARGE
  0 H s       :     1.000000  s :     1.000000
      pz      :     0.000000  p :     0.000000
      px      :     0.000000
      py      :     0.000000
      dz2     :     0.000000  d :     0.000000
      dxz     :     0.000000
      dyz     :     0.000000
      dx2y2   :     0.000000
      dxy     :     0.000000
      f0      :     0.000000  f :     0.000000
      f+1     :     0.000000
      f-1     :     0.000000
      f+2     :     0.000000
      f-2     :     0.000000
      f+3     :     0.000000
      f-3     :     0.000000

SPIN
  0 H s       :     1.000000  s :     1.000000
      pz      :     0.000000  p :     0.000000
      px      :     0.000000
      py      :     0.000000
      dz2     :     0.000000  d :     0.000000
      dxz     :     0.000000
      dyz     :     0.000000
      dx2y2   :     0.000000
      dxy     :     0.000000
      f0      :     0.000000  f :     0.000000
      f+1     :     0.000000
      f-1     :     0.000000
      f+2     :     0.000000
      f-2     :     0.000000
      f+3     :     0.000000
      f-3     :     0.000000


                      *****************************
                      * MAYER POPULATION ANALYSIS *
                      *****************************

  NA   - Mulliken gross atomic population
  ZA   - Total nuclear charge
  QA   - Mulliken gross atomic charge
  VA   - Mayer's total valence
  BVA  - Mayer's bonded valence
  FA   - Mayer's free valence

  ATOM       NA         ZA         QA         VA         BVA        FA
  0 H      1.0000     1.0000    -0.0000     1.0000     0.0000     1.0000

  Mayer bond orders larger than 0.1


--------------------------
ATOM BASIS FOR ELEMENT H 
--------------------------
 NewGTO H 
 S 7
    1        190.691690000000         0.000708151680
    2         28.605532000000         0.005467882549
    3          6.509594300000         0.027966604228
    4          1.841245500000         0.107645377029
    5          0.598537250000         0.298897133830
    6          0.213976240000         0.474068033782
    7          0.080316286000         0.229395263349
 end
-------------------------------------------
RADIAL EXPECTATION VALUES <R**-3> TO <R**3>
-------------------------------------------
   0 :     0.000000     1.997664     0.999967     1.499884     2.998760     7.489029
   1 :     0.000000     0.562797     0.405064     3.737304    15.838278    71.611680
   2 :     0.262726     0.322653     0.525129     2.117158     4.865386    11.976991
   3 :     0.262726     0.322653     0.525129     2.117158     4.865386    11.976991
   4 :     0.262726     0.322653     0.525129     2.117158     4.865386    11.976991
   5 :     0.000000     2.040048     0.913241     2.117357     6.625079    26.221959
   6 :     0.337145     0.449983     0.648149     1.642419     2.856585    26.187239
   7 :     0.337145     0.449983     0.648149     1.642419     2.856585    26.187239
   8 :     0.337145     0.449983     0.648149     1.642419     2.856585    26.187239
   9 :     0.337145     0.449983     0.648149     1.642419     2.856585    26.187239
  10 :     0.337145     0.449983     0.648149     1.642419     2.856585    26.187239
  11 :     1.188171     0.913422     0.863809     1.466453     2.760209     6.384842
  12 :     1.188171     0.913422     0.863809     1.466453     2.760209     6.384842
  13 :     1.188171     0.913422     0.863809     1.466453     2.760209     6.384842
  14 :     0.000000    17.405599     2.678375     0.960059     1.995382     6.597850
  15 :     0.803018     0.798286     0.862224     1.234394     1.610594    15.463060
  16 :     0.803018     0.798286     0.862224     1.234394     1.610594    15.463060
  17 :     0.803018     0.798286     0.862224     1.234394     1.610594    15.463060
  18 :     0.803018     0.798286     0.862224     1.234394     1.610594    15.463060
  19 :     0.803018     0.798286     0.862224     1.234394     1.610594    15.463060
  20 :     0.803018     0.798286     0.862224     1.234394     1.610594    15.463060
  21 :     0.803018     0.798286     0.862224     1.234394     1.610594    15.463060
  22 :     9.109215     3.326592     1.595849     0.881601     1.161876     2.177345
  23 :     9.109215     3.326592     1.595849     0.881601     1.161876     2.177345
  24 :     9.109215     3.326592     1.595849     0.881601     1.161876     2.177345
  25 :     2.782946     1.729217     1.229091     0.955999     1.114634     8.031163
  26 :     2.782946     1.729217     1.229091     0.955999     1.114634     8.031163
  27 :     2.782946     1.729217     1.229091     0.955999     1.114634     8.031163
  28 :     2.782946     1.729217     1.229091     0.955999     1.114634     8.031163
  29 :     2.782946     1.729217     1.229091     0.955999     1.114634     8.031163
-------
TIMINGS
-------

Total SCF time: 0 days 0 hours 0 min 3 sec 

Total time                  ....       3.201 sec
Sum of individual times     ....       3.178 sec  ( 99.3%)

Fock matrix formation       ....       2.778 sec  ( 86.8%)
Diagonalization             ....       0.009 sec  (  0.3%)
Density matrix formation    ....       0.000 sec  (  0.0%)
Population analysis         ....       0.005 sec  (  0.2%)
Initial guess               ....       0.146 sec  (  4.6%)
Orbital Transformation      ....       0.000 sec  (  0.0%)
Orbital Orthonormalization  ....       0.000 sec  (  0.0%)
DIIS solution               ....       0.005 sec  (  0.2%)
SCF Stability Analysis      ....       0.225 sec  (  7.0%)

-------------------------   --------------------
FINAL SINGLE POINT ENERGY        -0.499983297790
-------------------------   --------------------


                            ***************************************
                            *     ORCA property calculations      *
                            ***************************************

                                    ---------------------
                                    Active property flags
                                    ---------------------
   (+) Dipole Moment


------------------------------------------------------------------------------
                       ORCA ELECTRIC PROPERTIES CALCULATION
------------------------------------------------------------------------------

Dipole Moment Calculation                       ... on
Quadrupole Moment Calculation                   ... off
Polarizability Calculation                      ... off
GBWName                                         ... mol.gbw
Electron density file                           ... mol.scfp.tmp
The origin for moment calculation is the CENTER OF MASS  = ( 0.000000,  0.000000  0.000000)

-------------
DIPOLE MOMENT
-------------
                                X             Y             Z
Electronic contribution:     -0.00000       0.00000      -0.00000
Nuclear contribution   :      0.00000       0.00000       0.00000
                        -----------------------------------------
Total Dipole Moment    :     -0.00000       0.00000      -0.00000
                        -----------------------------------------
Magnitude (a.u.)       :      0.00000
Magnitude (Debye)      :      0.00000


Timings for individual modules:

Sum of individual times         ...        4.542 sec (=   0.076 min)
GTO integral calculation        ...        1.106 sec (=   0.018 min)  24.4 %
SCF iterations                  ...        3.435 sec (=   0.057 min)  75.6 %
                             ****ORCA TERMINATED NORMALLY****
TOTAL RUN TIME: 0 days 0 hours 0 minutes 4 seconds 998 msec
