
                                 *****************
                                 * O   R   C   A *
                                 *****************

           --- An Ab Initio, DFT and Semiempirical electronic structure package ---

                  #######################################################
                  #                        -***-                        #
                  #  Department of molecular theory and spectroscopy    #
                  #              Directorship: Frank Neese              #
                  # Max Planck Institute for Chemical Energy Conversion #
                  #                  D-45470 Muelheim/Ruhr              #
                  #                       Germany                       #
                  #                                                     #
                  #                  All rights reserved                #
                  #                        -***-                        #
                  #######################################################


                         Program Version 4.0.1.2 - RELEASE -


 With contributions from (in alphabetic order):
   Daniel Aravena         : Magnetic Properties
   Michael Atanasov       : Ab Initio Ligand Field Theory
   Ute Becker             : Parallelization
   Martin Brehm           : Molecular dynamics
   Dmytro Bykov           : SCF Hessian
   Vijay G. Chilkuri      : MRCI spin determinant printing
   Dipayan Datta          : RHF DLPNO-CCSD density
   Achintya Kumar Dutta   : EOM-CC, STEOM-CC
   Dmitry Ganyushin       : Spin-Orbit,Spin-Spin,Magnetic field MRCI
   Yang Guo               : DLPNO-NEVPT2, CIM, IAO-localization
   Andreas Hansen         : Spin unrestricted coupled pair/coupled cluster methods
   Lee Huntington         : MR-EOM, pCC
   Robert Izsak           : Overlap fitted RIJCOSX, COSX-SCS-MP3, EOM
   Christian Kollmar      : KDIIS, OOCD, Brueckner-CCSD(T), CCSD density
   Simone Kossmann        : Meta GGA functionals, TD-DFT gradient, OOMP2, MP2 Hessian
   Martin Krupicka        : AUTO-CI
   Dagmar Lenk            : GEPOL surface
   Dimitrios Liakos       : Extrapolation schemes; parallel MDCI
   Dimitrios Manganas     : ROCIS; embedding schemes
   Dimitrios Pantazis     : SARC Basis sets
   Taras Petrenko         : DFT Hessian,TD-DFT gradient, ASA, ECA, R-Raman, ABS, FL, XAS/XES, NRVS
   Peter Pinski           : DLPNO-MP2
   Christoph Reimann      : Effective Core Potentials
   Marius Retegan         : Local ZFS, SOC
   Christoph Riplinger    : Optimizer, TS searches, QM/MM, DLPNO-CCSD(T), (RO)-DLPNO pert. Triples
   Tobias Risthaus        : Range-separated hybrids, TD-DFT gradient, RPA, STAB
   Michael Roemelt        : Restricted open shell CIS
   Masaaki Saitow         : Open-shell DLPNO
   Barbara Sandhoefer     : DKH picture change effects
   Kantharuban Sivalingam : CASSCF convergence, NEVPT2, FIC-MRCI
   Georgi Stoychev        : AutoAux
   Boris Wezisla          : Elementary symmetry handling
   Frank Wennmohs         : Technical directorship


 We gratefully acknowledge several colleagues who have allowed us to
 interface, adapt or use parts of their codes:
   Stefan Grimme, W. Hujo, H. Kruse,             : VdW corrections, initial TS optimization,
                  C. Bannwarth                     DFT functionals, gCP, sTDA/sTD-DF
   Ed Valeev                                     : LibInt (2-el integral package), F12 methods
   Garnet Chan, S. Sharma, J. Yang, R. Olivares  : DMRG
   Ulf Ekstrom                                   : XCFun DFT Library
   Mihaly Kallay                                 : mrcc  (arbitrary order and MRCC methods)
   Andreas Klamt, Michael Diedenhofen            : otool_cosmo (COSMO solvation model)
   Jiri Pittner, Ondrej Demel                    : Mk-CCSD
   Frank Weinhold                                : gennbo (NPA and NBO analysis)
   Christopher J. Cramer and Donald G. Truhlar   : smd solvation model


 Your calculation uses the libint2 library for the computation of 2-el integrals
 For citations please refer to: http://libint.valeyev.net

 This ORCA versions uses:
   CBLAS   interface :  Fast vector & matrix operations
   LAPACKE interface :  Fast linear algebra routines
   SCALAPACK package :  Parallel linear algebra routines




*****************************************
The coordinations will be read from file: ../../../../chem_database/Be.xyz
*****************************************


Your calculation utilizes the basis: def2-QZVP
   F. Weigend and R. Ahlrichs, Phys. Chem. Chem. Phys. 7, 3297 (2005).

================================================================================
                                        WARNINGS
                       Please study these warnings very carefully!
================================================================================

Warning: TCutStore was < 0. Adjusted to Thresh (uncritical)

INFO   : the flag for use of LIBINT has been found!

================================================================================
                                       INPUT FILE
================================================================================
NAME = mol.inp
|  1> # ================================================================
|  2> # Orca input file
|  3> # ================================================================
|  4> ! HF def2-QZVP VeryTightSCF UseSym
|  5> 
|  6> ! PAL4
|  7> 
|  8> %scf
|  9>   STABPerform true
| 10> #  STABRestartUHFifUnstable true
| 11> end
| 12> 
| 13> 
| 14> 
| 15> * xyzfile 0 1 ../../../../chem_database/Be.xyz
| 16> 
| 17>                          ****END OF INPUT****
================================================================================

------------------------------------------------------------------------------
                            SYMMETRY HANDLING SETUP
------------------------------------------------------------------------------

------------------
SYMMETRY DETECTION
------------------
Preparing Data                    ... done
Detection Threshold:    SymThresh ... 1.0000e-04

Point Group will now be determined:
Moving molecule to center of mass ... done

POINT GROUP                       ... Kh

The coordinates will now be cleaned:
Structure cleanup requested       ... yes
Selected point group              ... Kh
Cleaning Tolerance      SymThresh ... 1.0000e-04

Cleaning coordinates              ... done

-----------------------------------------------
SYMMETRY-PERFECTED CARTESIAN COORDINATES (A.U.)
-----------------------------------------------
Warning (ORCA_SYM): Coordinates were not cleaned so far!

------------------
SYMMETRY REDUCTION
------------------
ORCA supports only abelian point groups.
It is now checked, if the determined point group is supported:
Point Group ( Kh    ) is          ... NOT supported
Reducing to abelian subgroup      ... D2h

(Re)building abelian point group:
Creating Character Table          ... done
Making direct product table       ... done
Constructing symmetry operations  ... done
Creating atom transfer table      ... done
Creating asymmetric unit          ... done

----------------------
ASYMMETRIC UNIT IN D2h
----------------------
  #  AT     MASS              COORDS (A.U.)             BAS
   0 Be   9.0120   0.00000000   0.00000000   0.00000000   0

----------------------
SYMMETRY ADAPTED BASIS
----------------------
The coefficients for the symmetry adapted linear combinations (SALCS)
of basis functions will now be computed:
Number of basis functions         ...    36
Preparing memory                  ... done
Constructing Gamma(red)           ... done
Reducing Gamma(red)               ... done
Constructing SALCs                ... done
Checking SALC integrity           ... nothing suspicious
Normalizing SALCs                 ... done

Storing the symmetry object:
Symmetry file                     ... mol.sym.tmp
Writing symmetry information      ... done

                       ****************************
                       * Single Point Calculation *
                       ****************************

---------------------------------
CARTESIAN COORDINATES (ANGSTROEM)
---------------------------------
  Be     0.000000    0.000000    0.000000

----------------------------
CARTESIAN COORDINATES (A.U.)
----------------------------
  NO LB      ZA    FRAG     MASS         X           Y           Z
   0 Be    4.0000    0     9.012    0.000000    0.000000    0.000000

--------------------------------
INTERNAL COORDINATES (ANGSTROEM)
--------------------------------
 Be     0   0   0     0.000000000000     0.00000000     0.00000000

---------------------------
INTERNAL COORDINATES (A.U.)
---------------------------
 Be     0   0   0     0.000000000000     0.00000000     0.00000000

---------------------
BASIS SET INFORMATION
---------------------
There are 1 groups of distinct atoms

 Group   1 Type Be  : 15s7p2d1f contracted to 7s4p2d1f pattern {8211111/4111/11/1}

Atom   0Be   basis set group =>   1


           ************************************************************
           *        Program running with 4 parallel MPI-processes     *
           *              working on a common directory               *
           ************************************************************
------------------------------------------------------------------------------
                           ORCA GTO INTEGRAL CALCULATION
------------------------------------------------------------------------------

                         BASIS SET STATISTICS AND STARTUP INFO

 # of primitive gaussian shells          ...   25
 # of primitive gaussian functions       ...   53
 # of contracted shells                  ...   14
 # of contracted basis functions         ...   36
 Highest angular momentum                ...    3
 Maximum contraction depth               ...    8
 Integral package used                   ... LIBINT
 Integral threshhold            Thresh   ...  1.000e-12
 Primitive cut-off              TCut     ...  1.000e-14


------------------------------ INTEGRAL EVALUATION ----------------------------


 * One electron integrals 
 Pre-screening matrix                    ... done
 Shell pair data                         ... done (   0.000 sec)



           ************************************************************
           *        Program running with 4 parallel MPI-processes     *
           *              working on a common directory               *
           ************************************************************
-------------------------------------------------------------------------------
                                 ORCA SCF
-------------------------------------------------------------------------------

------------
SCF SETTINGS
------------
Hamiltonian:
 Ab initio Hamiltonian  Method          .... Hartree-Fock(GTOs)


General Settings:
 Integral files         IntName         .... mol
 Hartree-Fock type      HFTyp           .... RHF
 Total Charge           Charge          ....    0
 Multiplicity           Mult            ....    1
 Number of Electrons    NEL             ....    4
 Basis Dimension        Dim             ....   36
 Nuclear Repulsion      ENuc            ....      0.0000000000 Eh

 Symmetry handling      UseSym         .... ON
 Point group                           .... D2h
 Used point group                      .... D2h
 Number of irreps                      .... 8
   Irrep   Ag has   11 symmetry adapted basis functions (ofs=   0)
   Irrep  B1g has    2 symmetry adapted basis functions (ofs=  11)
   Irrep  B2g has    2 symmetry adapted basis functions (ofs=  13)
   Irrep  B3g has    2 symmetry adapted basis functions (ofs=  15)
   Irrep   Au has    1 symmetry adapted basis functions (ofs=  17)
   Irrep  B1u has    6 symmetry adapted basis functions (ofs=  18)
   Irrep  B2u has    6 symmetry adapted basis functions (ofs=  24)
   Irrep  B3u has    6 symmetry adapted basis functions (ofs=  30)

Convergence Acceleration:
 DIIS                   CNVDIIS         .... on
   Start iteration      DIISMaxIt       ....    12
   Startup error        DIISStart       ....  0.200000
   # of expansion vecs  DIISMaxEq       ....     5
   Bias factor          DIISBfac        ....   1.050
   Max. coefficient     DIISMaxC        ....  10.000
 Newton-Raphson         CNVNR           .... off
 SOSCF                  CNVSOSCF        .... on
   Start iteration      SOSCFMaxIt      ....   150
   Startup grad/error   SOSCFStart      ....  0.003300
 Level Shifting         CNVShift        .... on
   Level shift para.    LevelShift      ....    0.2500
   Turn off err/grad.   ShiftErr        ....    0.0010
 Zerner damping         CNVZerner       .... off
 Static damping         CNVDamp         .... on
   Fraction old density DampFac         ....    0.7000
   Max. Damping (<1)    DampMax         ....    0.9800
   Min. Damping (>=0)   DampMin         ....    0.0000
   Turn off err/grad.   DampErr         ....    0.1000
 Fernandez-Rico         CNVRico         .... off

SCF Procedure:
 Maximum # iterations   MaxIter         ....   125
 SCF integral mode      SCFMode         .... Direct
   Integral package                     .... LIBINT
 Reset frequeny         DirectResetFreq ....    20
 Integral Threshold     Thresh          ....  1.000e-12 Eh
 Primitive CutOff       TCut            ....  1.000e-14 Eh

Convergence Tolerance:
 Convergence Check Mode ConvCheckMode   .... Total+1el-Energy
 Convergence forced     ConvForced      .... 0
 Energy Change          TolE            ....  1.000e-09 Eh
 1-El. energy change                    ....  1.000e-06 Eh
 Orbital Gradient       TolG            ....  2.000e-06
 Orbital Rotation angle TolX            ....  2.000e-06
 DIIS Error             TolErr          ....  1.000e-08


Diagonalization of the overlap matrix:
Smallest eigenvalue                        ... 6.741e-03
Time for diagonalization                   ...    0.002 sec
Threshold for overlap eigenvalues          ... 1.000e-08
Number of eigenvalues below threshold      ... 0
Time for construction of square roots      ...    0.001 sec
Producing symmetrization matrix            ... done (   0.000 sec)
Total time needed                          ...    0.003 sec

-------------------
DFT GRID GENERATION
-------------------

General Integration Accuracy     IntAcc      ...  4.340
Radial Grid Type                 RadialGrid  ... Gauss-Chebyshev
Angular Grid (max. acc.)         AngularGrid ... Lebedev-110
Angular grid pruning method      GridPruning ... 3 (G Style)
Weight generation scheme         WeightScheme... Becke
Basis function cutoff            BFCut       ...    1.0000e-12
Integration weight cutoff        WCut        ...    1.0000e-14
Grids for H and He will be reduced by one unit

# of grid points (after initial pruning)     ...   1678 (   0.0 sec)
# of grid points (after weights+screening)   ...   1678 (   0.0 sec)
Grid point division into batches done        ...    0.0 sec
Reduced shell lists constructed in    0.0 sec

Total number of grid points                  ...     1678
Total number of batches                      ...       27
Average number of points per batch           ...       62
Average number of grid points per atom       ...     1678
Average number of shells per batch           ...     8.00 (57.14%)
Average number of basis functions per batch  ...    25.50 (70.83%)
Average number of large shells per batch     ...     7.88 (98.44%)
Average number of large basis fcns per batch ...    25.38 (99.51%)
Maximum spatial batch extension              ...  21.83, 39.91, 39.91 au
Average spatial batch extension              ...   4.79,  6.54,  8.25 au

Time for grid setup =    0.021 sec

------------------------------
INITIAL GUESS: MODEL POTENTIAL
------------------------------
Loading Hartree-Fock densities                     ... done
Calculating cut-offs                               ... done
Setting up the integral package                    ... done
Initializing the effective Hamiltonian             ... done
Starting the Coulomb interaction                   ... done (   0.0 sec)
Reading the grid                                   ... done
Mapping shells                                     ... done
Starting the XC term evaluation                    ... done (   0.0 sec)
done (   0.0 sec)
Diagonalizing the Hamiltonian                      ... done (   0.0 sec)
Back transforming the eigenvectors                 ... done (   0.0 sec)
Now organizing SCF variables                       ... done
The symmetry of the initial guess is 1-Ag
Irrep occupations for operator 0
    Ag -    2
   B1g -    0
   B2g -    0
   B3g -    0
    Au -    0
   B1u -    0
   B2u -    0
   B3u -    0
                      ------------------
                      INITIAL GUESS DONE (   0.1 sec)
                      ------------------
--------------
SCF ITERATIONS
--------------
ITER       Energy         Delta-E        Max-DP      RMS-DP      [F,P]     Damp
               ***  Starting incremental Fock matrix formation  ***
  0    -14.5682362261   0.000000000000 0.00742727  0.00039030  0.1923025 0.7000
  1    -14.5695733377  -0.001337111599 0.00567826  0.00031569  0.1402527 0.7000
                               ***Turning on DIIS***
  2    -14.5705530134  -0.000979675714 0.00417246  0.00024393  0.1011401 0.7000
  3    -14.5692416124   0.001311400996 0.01089620  0.00067579  0.0729194 0.0000
                      *** Initiating the SOSCF procedure ***
                           *** Shutting down DIIS ***
                      *** Re-Reading the Fockian *** 
                      *** Removing any level shift *** 
ITER      Energy       Delta-E        Grad      Rot      Max-DP    RMS-DP
  4    -14.57291905  -0.0036774397  0.001272  0.001272  0.002330  0.000099
               *** Restarting incremental Fock matrix formation ***
  5    -14.57300025  -0.0000811980  0.000311  0.000715  0.002920  0.000101
  6    -14.57300087  -0.0000006167  0.000094  0.000308  0.001503  0.000050
  7    -14.57300093  -0.0000000591  0.000006  0.000006  0.000075  0.000002
  8    -14.57300093  -0.0000000001  0.000001  0.000002  0.000018  0.000001
                 **** Energy Check signals convergence ****
              ***Rediagonalizing the Fockian in SOSCF/NRSCF***

               *****************************************************
               *                     SUCCESS                       *
               *           SCF CONVERGED AFTER   9 CYCLES          *
               *****************************************************


------------------------------------------------------------------------------
                          SCF STABILITY ANALYSIS                              
------------------------------------------------------------------------------


                       ****Iteration    0****

   Memory handling for direct AO based CIS:
   Memory per vector needed      ...     1 MB
   Memory needed                 ...     0 MB
   Memory available              ...  1024 MB
   Number of vectors per batch   ...  1024
   Number of batches             ...     1
   Time for densities:     0.000
   Using LibInt in JK Direct
   Time for K (Direct):     0.080
   Time for Sigma-Completion:     0.000
   Lowest Energy          :     0.213472937740
   Maximum Energy change  :     0.306295681049 (vector 2)
   Maximum residual norm  :     0.007202006599

                       ****Iteration    1****
   Time for densities:     0.000
   Using LibInt in JK Direct
   Time for K (Direct):     0.076
   Time for Sigma-Completion:     0.000
   Lowest Energy          :     0.198228406628
   Maximum Energy change  :     0.015244531113 (vector 0)
   Maximum residual norm  :     0.000178890084

                       ****Iteration    2****
   Time for densities:     0.000
   Using LibInt in JK Direct
   Time for K (Direct):     0.076
   Time for Sigma-Completion:     0.000
   Lowest Energy          :     0.198173194781
   Maximum Energy change  :     0.000055211847 (vector 0)

         *** CONVERGENCE OF ENERGIES REACHED ***

----------------------------- 
SCF STABILITY ANALYSIS RESULT 
----------------------------- 

RHF/RKS->UHF/UKS - triplet - external

   Root    Eigenvalue (au) 
     0       0.198173 
     1       0.306209 
     2       0.306209 

Stability Analysis indicates a stable HF/KS wave function.


Total time for performing the stability analysis:     0.235sec


----------------
TOTAL SCF ENERGY
----------------

Total Energy       :          -14.57300093 Eh            -396.55152 eV

Components:
Nuclear Repulsion  :            0.00000000 Eh               0.00000 eV
Electronic Energy  :          -14.57300093 Eh            -396.55152 eV
One Electron Energy:          -19.06216637 Eh            -518.70792 eV
Two Electron Energy:            4.48916545 Eh             122.15640 eV

Virial components:
Potential Energy   :          -29.14600311 Eh            -793.10307 eV
Kinetic Energy     :           14.57300219 Eh             396.55155 eV
Virial Ratio       :            1.99999991


---------------
SCF CONVERGENCE
---------------

  Last Energy change         ...   -5.1532e-12  Tolerance :   1.0000e-09
  Last MAX-Density change    ...    1.0660e-07  Tolerance :   1.0000e-08
  Last RMS-Density change    ...    4.2272e-09  Tolerance :   1.0000e-09
  Last Orbital Gradient      ...    3.2118e-08  Tolerance :   2.0000e-06
  Last Orbital Rotation      ...    9.6363e-09  Tolerance :   2.0000e-06

             **** THE GBW FILE WAS UPDATED (mol.gbw) ****
             **** DENSITY FILE WAS UPDATED (mol.scfp.tmp) ****
             **** ENERGY FILE WAS UPDATED (mol.en.tmp) ****
----------------
ORBITAL ENERGIES
----------------

  NO   OCC          E(Eh)            E(eV)    Irrep 
   0   2.0000      -4.732655      -128.7821    1-Ag
   1   2.0000      -0.309263        -8.4155    2-Ag
   2   0.0000       0.045149         1.2286    1-B2u
   3   0.0000       0.045149         1.2286    1-B3u
   4   0.0000       0.045149         1.2286    1-B1u
   5   0.0000       0.125944         3.4271    3-Ag
   6   0.0000       0.207274         5.6402    2-B2u
   7   0.0000       0.207274         5.6402    2-B1u
   8   0.0000       0.207274         5.6402    2-B3u
   9   0.0000       0.272127         7.4050    1-B2g
  10   0.0000       0.272127         7.4050    1-B3g
  11   0.0000       0.272127         7.4050    1-B1g
  12   0.0000       0.272127         7.4050    4-Ag
  13   0.0000       0.272127         7.4050    5-Ag
  14   0.0000       0.673040        18.3143    6-Ag
  15   0.0000       0.765622        20.8336    3-B1u
  16   0.0000       0.765622        20.8336    3-B3u
  17   0.0000       0.765622        20.8336    3-B2u
  18   0.0000       1.109414        30.1887    7-Ag
  19   0.0000       1.109414        30.1887    2-B2g
  20   0.0000       1.109414        30.1887    2-B3g
  21   0.0000       1.109414        30.1887    8-Ag
  22   0.0000       1.109414        30.1887    2-B1g
  23   0.0000       1.168930        31.8082    4-B3u
  24   0.0000       1.168930        31.8082    4-B1u
  25   0.0000       1.168930        31.8082    4-B2u
  26   0.0000       1.168930        31.8082    5-B2u
  27   0.0000       1.168930        31.8082    1-Au
  28   0.0000       1.168930        31.8082    5-B3u
  29   0.0000       1.168930        31.8082    5-B1u
  30   0.0000       2.992067        81.4183    9-Ag
  31   0.0000      10.914163       296.9895    6-B3u
  32   0.0000      10.914163       296.9895    6-B1u
  33   0.0000      10.914163       296.9895    6-B2u
  34   0.0000      11.932684       324.7048   10-Ag
  35   0.0000      65.225879      1774.8864   11-Ag

                    ********************************
                    * MULLIKEN POPULATION ANALYSIS *
                    ********************************

-----------------------
MULLIKEN ATOMIC CHARGES
-----------------------
   0 Be:   -0.000000
Sum of atomic charges:   -0.0000000

--------------------------------
MULLIKEN REDUCED ORBITAL CHARGES
--------------------------------
  0 Bes       :     4.000000  s :     4.000000
      pz      :     0.000000  p :     0.000000
      px      :     0.000000
      py      :     0.000000
      dz2     :     0.000000  d :     0.000000
      dxz     :     0.000000
      dyz     :     0.000000
      dx2y2   :     0.000000
      dxy     :     0.000000
      f0      :     0.000000  f :     0.000000
      f+1     :     0.000000
      f-1     :     0.000000
      f+2     :     0.000000
      f-2     :     0.000000
      f+3     :     0.000000
      f-3     :     0.000000


                     *******************************
                     * LOEWDIN POPULATION ANALYSIS *
                     *******************************

----------------------
LOEWDIN ATOMIC CHARGES
----------------------
   0 Be:   -0.000000

-------------------------------
LOEWDIN REDUCED ORBITAL CHARGES
-------------------------------
  0 Bes       :     4.000000  s :     4.000000
      pz      :     0.000000  p :     0.000000
      px      :     0.000000
      py      :     0.000000
      dz2     :     0.000000  d :     0.000000
      dxz     :     0.000000
      dyz     :     0.000000
      dx2y2   :     0.000000
      dxy     :     0.000000
      f0      :     0.000000  f :     0.000000
      f+1     :     0.000000
      f-1     :     0.000000
      f+2     :     0.000000
      f-2     :     0.000000
      f+3     :     0.000000
      f-3     :     0.000000


                      *****************************
                      * MAYER POPULATION ANALYSIS *
                      *****************************

  NA   - Mulliken gross atomic population
  ZA   - Total nuclear charge
  QA   - Mulliken gross atomic charge
  VA   - Mayer's total valence
  BVA  - Mayer's bonded valence
  FA   - Mayer's free valence

  ATOM       NA         ZA         QA         VA         BVA        FA
  0 Be     4.0000     4.0000    -0.0000    -0.0000     0.0000    -0.0000

  Mayer bond orders larger than 0.1


--------------------------
ATOM BASIS FOR ELEMENT Be
--------------------------
 NewGTO Be
 S 15
    1      29646.704407000001         0.000038026256
    2       4428.761435400000         0.000296700762
    3       1005.470133200000         0.001560652314
    4        284.153395780000         0.006546601226
    5         92.504356461000         0.023167401447
    6         33.311016058000         0.069610372513
    7         12.911553314000         0.170515698896
    8          5.266549736100         0.317519793555
    9         22.995386380000        -0.000039397665
   10          6.623635417600        -0.000385349241
   11          2.228959500300         0.377810436246
   12          0.953024334500         0.184397191418
   13          0.246516024400         0.009276752216
   14          0.101538953100        -0.003070236178
   15          0.041551374600         0.000807749919
 S 15
    1      29646.704407000001         0.000006992501
    2       4428.761435400000         0.000054559155
    3       1005.470133200000         0.000286982315
    4        284.153395780000         0.001203829165
    5         92.504356461000         0.004260163797
    6         33.311016058000         0.012800382019
    7         12.911553314000         0.031355471998
    8          5.266549736100         0.058387486079
    9         22.995386380000         0.001054553544
   10          6.623635417600         0.010314606379
   11          2.228959500300         0.121940067472
   12          0.953024334500         0.104022289233
   13          0.246516024400        -0.274113971276
   14          0.101538953100        -0.581198668903
   15          0.041551374600        -0.273227188356
 end
-------------------------------------------
RADIAL EXPECTATION VALUES <R**-3> TO <R**3>
-------------------------------------------
   0 :     0.000000    27.750181     3.681873     0.414993     0.232953     0.165324
   1 :     0.000000     1.055651     0.522523     2.649277     8.424450    31.385674
   2 :     0.097613     0.122917     0.287019     4.477567    23.605418   139.639572
   3 :     0.097613     0.122917     0.287019     4.477567    23.605418   139.639572
   4 :     0.097613     0.122917     0.287019     4.477567    23.605418   139.639572
   5 :     0.000000     0.307885     0.245657     5.545328    34.199095   224.046415
   6 :     0.193646     0.201525     0.355609     4.308597    24.824147   166.832459
   7 :     0.193646     0.201525     0.355609     4.308597    24.824147   166.832459
   8 :     0.193646     0.201525     0.355609     4.308597    24.824147   166.832459
   9 :     0.020844     0.068546     0.250520     4.306802    19.829777   484.525093
  10 :     0.020844     0.068546     0.250520     4.306802    19.829777   484.525093
  11 :     0.020844     0.068546     0.250520     4.306802    19.829777   484.525093
  12 :     0.020844     0.068546     0.250520     4.306802    19.829777   484.525093
  13 :     0.020844     0.068546     0.250520     4.306802    19.829777   484.525093
  14 :     0.000000     1.569948     0.548862     3.282113    14.820187    83.350981
  15 :     1.117582     0.701069     0.666633     2.601546    10.863634    61.087246
  16 :     1.117582     0.701069     0.666633     2.601546    10.863634    61.087246
  17 :     1.117582     0.701069     0.666633     2.601546    10.863634    61.087246
  18 :     0.192641     0.291454     0.504454     2.341746     6.797736   125.068817
  19 :     0.192641     0.291454     0.504454     2.341746     6.797736   125.068817
  20 :     0.192641     0.291454     0.504454     2.341746     6.797736   125.068817
  21 :     0.192641     0.291454     0.504454     2.341746     6.797736   125.068817
  22 :     0.192641     0.291454     0.504454     2.341746     6.797736   125.068817
  23 :     0.075950     0.165714     0.392845     2.709274     7.758621   163.490696
  24 :     0.075950     0.165714     0.392845     2.709274     7.758621   163.490696
  25 :     0.075950     0.165714     0.392845     2.709274     7.758621   163.490696
  26 :     0.075950     0.165714     0.392845     2.709274     7.758621   163.490696
  27 :     0.075950     0.165714     0.392845     2.709274     7.758621   163.490696
  28 :     0.075950     0.165714     0.392845     2.709274     7.758621   163.490696
  29 :     0.075950     0.165714     0.392845     2.709274     7.758621   163.490696
  30 :     0.000000     7.503539     1.322163     1.598708     4.325219    18.521137
  31 :    34.593449     8.434677     2.628310     0.524481     0.655324     2.538538
  32 :    34.593449     8.434677     2.628310     0.524481     0.655324     2.538538
  33 :    34.593449     8.434677     2.628310     0.524481     0.655324     2.538538
  34 :     0.000000    24.615448     3.014038     0.772731     1.248847     4.185224
  35 :     0.000000   260.961853    10.165625     0.293518     0.272773     0.764063
-------
TIMINGS
-------

Total SCF time: 0 days 0 hours 0 min 1 sec 

Total time                  ....       1.888 sec
Sum of individual times     ....       1.879 sec  ( 99.5%)

Fock matrix formation       ....       1.444 sec  ( 76.5%)
Diagonalization             ....       0.002 sec  (  0.1%)
Density matrix formation    ....       0.035 sec  (  1.8%)
Population analysis         ....       0.000 sec  (  0.0%)
Initial guess               ....       0.120 sec  (  6.3%)
Orbital Transformation      ....       0.000 sec  (  0.0%)
Orbital Orthonormalization  ....       0.000 sec  (  0.0%)
DIIS solution               ....       0.000 sec  (  0.0%)
SOSCF solution              ....       0.021 sec  (  1.1%)
SCF Stability Analysis      ....       0.235 sec  ( 12.5%)

-------------------------   --------------------
FINAL SINGLE POINT ENERGY       -14.573000926137
-------------------------   --------------------


                            ***************************************
                            *     ORCA property calculations      *
                            ***************************************

                                    ---------------------
                                    Active property flags
                                    ---------------------
   (+) Dipole Moment


------------------------------------------------------------------------------
                       ORCA ELECTRIC PROPERTIES CALCULATION
------------------------------------------------------------------------------

Dipole Moment Calculation                       ... on
Quadrupole Moment Calculation                   ... off
Polarizability Calculation                      ... off
GBWName                                         ... mol.gbw
Electron density file                           ... mol.scfp.tmp
The origin for moment calculation is the CENTER OF MASS  = ( 0.000000,  0.000000  0.000000)

-------------
DIPOLE MOMENT
-------------
                                X             Y             Z
Electronic contribution:      0.00000      -0.00000       0.00000
Nuclear contribution   :      0.00000       0.00000       0.00000
                        -----------------------------------------
Total Dipole Moment    :      0.00000      -0.00000       0.00000
                        -----------------------------------------
Magnitude (a.u.)       :      0.00000
Magnitude (Debye)      :      0.00000


Timings for individual modules:

Sum of individual times         ...        2.569 sec (=   0.043 min)
GTO integral calculation        ...        0.455 sec (=   0.008 min)  17.7 %
SCF iterations                  ...        2.114 sec (=   0.035 min)  82.3 %
                             ****ORCA TERMINATED NORMALLY****
TOTAL RUN TIME: 0 days 0 hours 0 minutes 2 seconds 884 msec
