[Molden Format]
[Title]
 Molden file created by orca_2mkl for BaseName=mol

[Atoms] AU
Li   1   3          0.0000000000         0.0000000000         0.0000000000 
[GTO]
  1 0
s   9 1.0 
     6601.0000000000         0.0612241946
      989.7000000000         0.1148618942
      225.7000000000         0.1967234157
       64.2900000000         0.3114374635
       21.1800000000         0.4447734064
        7.7240000000         0.5403225103
        3.0030000000         0.5131784250
        1.2120000000         0.3251490991
        0.4930000000         0.0827847850
s   9 1.0 
     6601.0000000000        -0.0343687023
      989.7000000000        -0.0653279984
      225.7000000000        -0.1124994002
       64.2900000000        -0.1787713180
       21.1800000000        -0.2605775722
        7.7240000000        -0.3272940839
        3.0030000000        -0.3411547325
        1.2120000000        -0.2827826506
        0.4930000000        -0.1857506683
s   1 1.0 
        0.0951500000         0.1221002875
s   1 1.0 
        0.0479100000         0.0729843459
s   1 1.0 
        0.0222000000         0.0409897079
p   3 1.0 
        6.2500000000         0.5138103395
        1.3700000000         0.4393668856
        0.3672000000         0.3470053746
p   1 1.0 
        0.1192000000         0.0998355942
p   1 1.0 
        0.0447400000         0.0293298649
p   1 1.0 
        0.0179500000         0.0093652776
d   1 1.0 
        0.3352000000         0.4209709243
d   1 1.0 
        0.1482000000         0.1009147015
d   1 1.0 
        0.0656000000         0.0242410709
f   1 1.0 
        0.2280000000         0.2048110976
f   1 1.0 
        0.1135000000         0.0426324968
g   1 1.0 
        0.2319000000         0.1183168248

[5D]
[9G]
[MO]
 Sym=     1a
 Ene= -2.48659664712978E+00
 Spin= Alpha
 Occup= 1.000000
  1       1.006419340632
  2       0.008949857309
  3       0.009441562829
  4      -0.005468590792
  5       0.001445245165
  6      -0.000000000000
  7      -0.000000000000
  8       0.000000000000
  9      -0.000000000000
 10      -0.000000000000
 11       0.000000000000
 12      -0.000000000000
 13      -0.000000000000
 14       0.000000000000
 15      -0.000000000000
 16      -0.000000000000
 17      -0.000000000000
 18      -0.000000000000
 19       0.000000000000
 20       0.000000000000
 21       0.000000000000
 22      -0.000000000000
 23       0.000000000000
 24      -0.000000000000
 25      -0.000000000000
 26      -0.000000000000
 27       0.000000000000
 28       0.000000000000
 29      -0.000000000000
 30       0.000000000000
 31       0.000000000000
 32      -0.000000000000
 33       0.000000000000
 34      -0.000000000000
 35      -0.000000000000
 36      -0.000000000000
 37       0.000000000000
 38       0.000000000000
 39       0.000000000000
 40       0.000000000000
 41       0.000000000000
 42       0.000000000000
 43       0.000000000000
 44       0.000000000000
 45      -0.000000000000
 46      -0.000000000000
 47       0.000000000000
 48       0.000000000000
 49       0.000000000000
 50       0.000000000000
 51      -0.000000000000
 52      -0.000000000000
 53       0.000000000000
 54      -0.000000000000
 55       0.000000000000
 Sym=     1a
 Ene= -1.96364761959456E-01
 Spin= Alpha
 Occup= 1.000000
  1      -0.001042648631
  2      -0.273018960701
  3      -0.277133868031
  4      -0.549211579906
  5      -0.277231956174
  6       0.000000000000
  7       0.000000000000
  8       0.000000000000
  9       0.000000000000
 10       0.000000000000
 11      -0.000000000000
 12       0.000000000000
 13       0.000000000000
 14      -0.000000000000
 15       0.000000000000
 16       0.000000000000
 17       0.000000000000
 18      -0.000000000000
 19      -0.000000000000
 20      -0.000000000000
 21       0.000000000000
 22       0.000000000000
 23       0.000000000000
 24       0.000000000000
 25      -0.000000000000
 26      -0.000000000000
 27      -0.000000000000
 28      -0.000000000000
 29      -0.000000000000
 30      -0.000000000000
 31       0.000000000000
 32       0.000000000000
 33      -0.000000000000
 34      -0.000000000000
 35       0.000000000000
 36       0.000000000000
 37      -0.000000000000
 38      -0.000000000000
 39      -0.000000000000
 40       0.000000000000
 41       0.000000000000
 42      -0.000000000000
 43      -0.000000000000
 44      -0.000000000000
 45       0.000000000000
 46       0.000000000000
 47      -0.000000000002
 48      -0.000000000000
 49      -0.000000000000
 50      -0.000000000000
 51       0.000000000000
 52       0.000000000000
 53       0.000000000000
 54       0.000000000002
 55       0.000000000000
 Sym=     1a
 Ene= 1.94358187061769E-02
 Spin= Alpha
 Occup= 0.000000
  1      -0.000000000000
  2      -0.000000000000
  3       0.000000000000
  4      -0.000000000000
  5       0.000000000000
  6       0.000000000000
  7       0.000000000000
  8      -0.029470493263
  9      -0.000000000000
 10      -0.000000000000
 11      -0.173719047900
 12       0.000000000000
 13       0.000000000000
 14      -0.005586022813
 15       0.000000000000
 16      -0.000000000000
 17      -0.910618472321
 18       0.000000000000
 19       0.000000000000
 20       0.000000000000
 21       0.000000000000
 22       0.000000000000
 23       0.000000000000
 24       0.000000000000
 25      -0.000000000000
 26      -0.000000000000
 27      -0.000000000000
 28       0.000000000000
 29       0.000000000000
 30      -0.000000000000
 31      -0.000000000000
 32      -0.000000000000
 33      -0.000000000001
 34      -0.000000000000
 35       0.000000000000
 36      -0.000000000000
 37      -0.000000000000
 38      -0.000000000000
 39       0.000000000000
 40      -0.000000000000
 41       0.000000000000
 42      -0.000000000000
 43       0.000000000000
 44      -0.000000000000
 45       0.000000000000
 46      -0.000000000000
 47       0.000000000000
 48      -0.000000000000
 49      -0.000000000000
 50      -0.000000000000
 51      -0.000000000000
 52       0.000000000000
 53      -0.000000000000
 54       0.000000000000
 55       0.000000000000
 Sym=     1a
 Ene= 1.94358187061776E-02
 Spin= Alpha
 Occup= 0.000000
  1       0.000000000000
  2       0.000000000000
  3      -0.000000000000
  4       0.000000000000
  5      -0.000000000000
  6      -0.029470493263
  7      -0.000000000000
  8      -0.000000000000
  9      -0.173719047900
 10       0.000000000000
 11       0.000000000000
 12      -0.005586022813
 13       0.000000000000
 14      -0.000000000000
 15      -0.910618472321
 16      -0.000000000000
 17       0.000000000000
 18       0.000000000000
 19       0.000000000000
 20      -0.000000000000
 21      -0.000000000000
 22      -0.000000000000
 23       0.000000000000
 24      -0.000000000000
 25       0.000000000000
 26       0.000000000000
 27       0.000000000000
 28      -0.000000000000
 29       0.000000000000
 30      -0.000000000000
 31       0.000000000000
 32      -0.000000000000
 33      -0.000000000000
 34       0.000000000000
 35      -0.000000000000
 36      -0.000000000000
 37      -0.000000000000
 38       0.000000000000
 39       0.000000000000
 40      -0.000000000000
 41       0.000000000000
 42       0.000000000000
 43       0.000000000000
 44       0.000000000000
 45       0.000000000000
 46      -0.000000000000
 47      -0.000000000000
 48      -0.000000000000
 49       0.000000000000
 50       0.000000000000
 51       0.000000000000
 52       0.000000000000
 53       0.000000000000
 54       0.000000000000
 55       0.000000000000
 Sym=     1a
 Ene= 1.94358187061776E-02
 Spin= Alpha
 Occup= 0.000000
  1       0.000000000000
  2       0.000000000000
  3      -0.000000000000
  4       0.000000000000
  5      -0.000000000000
  6       0.000000000000
  7      -0.029470493263
  8       0.000000000000
  9       0.000000000000
 10      -0.173719047900
 11      -0.000000000000
 12       0.000000000000
 13      -0.005586022813
 14       0.000000000000
 15      -0.000000000000
 16      -0.910618472321
 17      -0.000000000000
 18       0.000000000000
 19       0.000000000000
 20       0.000000000000
 21      -0.000000000000
 22       0.000000000000
 23      -0.000000000000
 24       0.000000000000
 25      -0.000000000000
 26      -0.000000000000
 27      -0.000000000000
 28      -0.000000000000
 29      -0.000000000000
 30      -0.000000000000
 31       0.000000000000
 32      -0.000000000000
 33      -0.000000000000
 34       0.000000000000
 35       0.000000000000
 36       0.000000000000
 37      -0.000000000000
 38      -0.000000000000
 39      -0.000000000000
 40       0.000000000000
 41      -0.000000000000
 42       0.000000000000
 43       0.000000000000
 44      -0.000000000000
 45      -0.000000000000
 46      -0.000000000000
 47      -0.000000000000
 48      -0.000000000000
 49      -0.000000000000
 50       0.000000000000
 51       0.000000000000
 52       0.000000000000
 53       0.000000000000
 54      -0.000000000000
 55       0.000000000000
 Sym=     1a
 Ene= 6.56009981499168E-02
 Spin= Alpha
 Occup= 0.000000
  1       0.065844508731
  2      -0.043652522331
  3       0.739668859798
  4      -3.211405105396
  5       2.719946629562
  6       0.000000000000
  7       0.000000000000
  8      -0.000000000000
  9       0.000000000000
 10       0.000000000000
 11      -0.000000000000
 12       0.000000000000
 13       0.000000000000
 14      -0.000000000000
 15       0.000000000000
 16       0.000000000000
 17      -0.000000000000
 18      -0.000000000000
 19       0.000000000000
 20       0.000000000000
 21       0.000000000000
 22       0.000000000000
 23       0.000000000000
 24      -0.000000000000
 25      -0.000000000000
 26      -0.000000000000
 27      -0.000000000000
 28      -0.000000000000
 29      -0.000000000000
 30       0.000000000000
 31       0.000000000000
 32       0.000000000000
 33      -0.000000000000
 34       0.000000000000
 35      -0.000000000000
 36       0.000000000000
 37      -0.000000000000
 38      -0.000000000000
 39      -0.000000000000
 40      -0.000000000000
 41      -0.000000000000
 42      -0.000000000000
 43      -0.000000000000
 44       0.000000000000
 45       0.000000000000
 46       0.000000000000
 47      -0.000000000000
 48      -0.000000000000
 49       0.000000000000
 50       0.000000000000
 51      -0.000000000000
 52      -0.000000000000
 53      -0.000000000000
 54       0.000000000000
 55       0.000000000000
 Sym=     1a
 Ene= 8.88369739165447E-02
 Spin= Alpha
 Occup= 0.000000
  1      -0.000000000000
  2      -0.000000000000
  3       0.000000000000
  4      -0.000000000000
  5       0.000000000000
  6       0.095307902685
  7      -0.000000000000
  8      -0.000000000000
  9      -0.047356005877
 10       0.000000000000
 11       0.000000000000
 12       1.575719201303
 13       0.000000000000
 14      -0.000000000000
 15      -1.362074023893
 16      -0.000000000000
 17       0.000000000000
 18      -0.000000000000
 19      -0.000000000000
 20       0.000000000000
 21       0.000000000000
 22      -0.000000000000
 23      -0.000000000000
 24       0.000000000000
 25      -0.000000000000
 26      -0.000000000000
 27       0.000000000000
 28       0.000000000000
 29      -0.000000000000
 30      -0.000000000000
 31      -0.000000000000
 32       0.000000000000
 33       0.000000000000
 34      -0.000000000001
 35       0.000000000000
 36      -0.000000000000
 37      -0.000000000000
 38      -0.000000000001
 39       0.000000000000
 40      -0.000000000000
 41       0.000000000001
 42      -0.000000000000
 43       0.000000000000
 44       0.000000000000
 45       0.000000000001
 46      -0.000000000000
 47       0.000000000000
 48       0.000000000000
 49       0.000000000000
 50      -0.000000000000
 51      -0.000000000000
 52      -0.000000000000
 53       0.000000000000
 54       0.000000000000
 55       0.000000000000
 Sym=     1a
 Ene= 8.88369739165453E-02
 Spin= Alpha
 Occup= 0.000000
  1      -0.000000000000
  2      -0.000000000000
  3       0.000000000000
  4      -0.000000000000
  5       0.000000000000
  6      -0.000000000000
  7       0.095307902685
  8       0.000000000000
  9       0.000000000000
 10      -0.047356005877
 11      -0.000000000000
 12      -0.000000000000
 13       1.575719201303
 14       0.000000000000
 15      -0.000000000000
 16      -1.362074023893
 17      -0.000000000000
 18       0.000000000000
 19      -0.000000000000
 20      -0.000000000000
 21      -0.000000000000
 22      -0.000000000000
 23      -0.000000000000
 24       0.000000000000
 25      -0.000000000000
 26      -0.000000000000
 27      -0.000000000000
 28      -0.000000000000
 29      -0.000000000000
 30       0.000000000000
 31       0.000000000000
 32       0.000000000000
 33      -0.000000000000
 34       0.000000000000
 35      -0.000000000001
 36       0.000000000000
 37       0.000000000000
 38      -0.000000000000
 39       0.000000000001
 40       0.000000000000
 41       0.000000000000
 42       0.000000000001
 43      -0.000000000000
 44      -0.000000000000
 45       0.000000000000
 46      -0.000000000001
 47       0.000000000000
 48      -0.000000000000
 49       0.000000000000
 50      -0.000000000000
 51       0.000000000000
 52      -0.000000000000
 53       0.000000000000
 54       0.000000000000
 55       0.000000000000
 Sym=     1a
 Ene= 8.88369739165462E-02
 Spin= Alpha
 Occup= 0.000000
  1      -0.000000000000
  2      -0.000000000000
  3      -0.000000000000
  4       0.000000000000
  5       0.000000000000
  6      -0.000000000000
  7       0.000000000000
  8       0.095307902685
  9       0.000000000000
 10      -0.000000000000
 11      -0.047356005877
 12      -0.000000000000
 13       0.000000000000
 14       1.575719201303
 15       0.000000000000
 16      -0.000000000000
 17      -1.362074023893
 18       0.000000000000
 19       0.000000000000
 20       0.000000000000
 21       0.000000000000
 22       0.000000000000
 23       0.000000000000
 24       0.000000000000
 25      -0.000000000000
 26      -0.000000000000
 27       0.000000000000
 28       0.000000000000
 29       0.000000000000
 30      -0.000000000000
 31      -0.000000000000
 32      -0.000000000000
 33       0.000000000002
 34       0.000000000000
 35       0.000000000000
 36      -0.000000000000
 37      -0.000000000000
 38       0.000000000000
 39       0.000000000000
 40      -0.000000000002
 41      -0.000000000000
 42      -0.000000000000
 43       0.000000000000
 44      -0.000000000000
 45      -0.000000000000
 46      -0.000000000000
 47       0.000000000000
 48       0.000000000000
 49      -0.000000000000
 50      -0.000000000000
 51      -0.000000000000
 52       0.000000000000
 53      -0.000000000000
 54      -0.000000000000
 55       0.000000000000
 Sym=     1a
 Ene= 1.76220434340030E-01
 Spin= Alpha
 Occup= 0.000000
  1       0.000000000000
  2       0.000000000000
  3      -0.000000000000
  4       0.000000000000
  5      -0.000000000000
  6       0.000000000000
  7      -0.000000000000
  8      -0.000000000000
  9      -0.000000000000
 10       0.000000000000
 11      -0.000000000000
 12       0.000000000000
 13       0.000000000000
 14      -0.000000000000
 15      -0.000000000000
 16      -0.000000000000
 17       0.000000000000
 18      -0.000000000000
 19      -0.000000000000
 20      -0.000000000000
 21       0.000000000000
 22      -0.115548637713
 23       0.000000000000
 24       0.000000000000
 25       0.000000000000
 26      -0.000000000000
 27       0.404143750021
 28      -0.000000000000
 29      -0.000000000000
 30      -0.000000000000
 31       0.000000000000
 32      -1.245872862832
 33       0.000000000000
 34      -0.000000000000
 35      -0.000000000000
 36      -0.000000000000
 37      -0.000000000000
 38       0.000000000000
 39       0.000000000000
 40      -0.000000000000
 41       0.000000000000
 42       0.000000000000
 43       0.000000000000
 44       0.000000000000
 45      -0.000000000000
 46      -0.000000000000
 47       0.000000000000
 48      -0.000000000000
 49       0.000000000000
 50       0.000000000000
 51       0.000000000000
 52       0.000000000000
 53       0.000000000000
 54      -0.000000000000
 55       0.000000000000
 Sym=     1a
 Ene= 1.76220434340032E-01
 Spin= Alpha
 Occup= 0.000000
  1      -0.000000000000
  2      -0.000000000000
  3      -0.000000000000
  4       0.000000000000
  5      -0.000000000000
  6       0.000000000000
  7      -0.000000000000
  8       0.000000000000
  9      -0.000000000000
 10       0.000000000000
 11      -0.000000000000
 12       0.000000000000
 13      -0.000000000000
 14       0.000000000000
 15      -0.000000000000
 16       0.000000000000
 17      -0.000000000000
 18       0.000000000000
 19      -0.000000000000
 20      -0.115548637713
 21       0.000000000000
 22      -0.000000000000
 23       0.000000000000
 24       0.000000000000
 25       0.404143750021
 26       0.000000000000
 27       0.000000000000
 28       0.000000000000
 29       0.000000000000
 30      -1.245872862832
 31      -0.000000000000
 32      -0.000000000000
 33       0.000000000000
 34       0.000000000000
 35      -0.000000000000
 36       0.000000000000
 37       0.000000000000
 38       0.000000000000
 39      -0.000000000000
 40      -0.000000000000
 41      -0.000000000000
 42      -0.000000000000
 43       0.000000000000
 44      -0.000000000000
 45       0.000000000000
 46       0.000000000000
 47       0.000000000000
 48      -0.000000000000
 49      -0.000000000000
 50      -0.000000000000
 51      -0.000000000000
 52      -0.000000000000
 53      -0.000000000000
 54      -0.000000000000
 55       0.000000000000
 Sym=     1a
 Ene= 1.76220434340032E-01
 Spin= Alpha
 Occup= 0.000000
  1       0.000000000000
  2       0.000000000000
  3       0.000000000000
  4      -0.000000000000
  5       0.000000000000
  6      -0.000000000000
  7       0.000000000000
  8      -0.000000000000
  9       0.000000000000
 10      -0.000000000000
 11       0.000000000000
 12       0.000000000000
 13       0.000000000000
 14      -0.000000000000
 15       0.000000000000
 16      -0.000000000000
 17       0.000000000000
 18      -0.000000000000
 19      -0.115548637713
 20      -0.000000000000
 21      -0.000000000000
 22      -0.000000000000
 23       0.000000000000
 24       0.404143750021
 25      -0.000000000000
 26       0.000000000000
 27       0.000000000000
 28       0.000000000000
 29      -1.245872862832
 30       0.000000000000
 31       0.000000000000
 32      -0.000000000000
 33      -0.000000000000
 34       0.000000000000
 35      -0.000000000000
 36      -0.000000000000
 37      -0.000000000000
 38      -0.000000000000
 39       0.000000000000
 40      -0.000000000000
 41      -0.000000000000
 42       0.000000000000
 43      -0.000000000000
 44       0.000000000000
 45       0.000000000000
 46       0.000000000000
 47       0.000000000000
 48      -0.000000000000
 49       0.000000000000
 50       0.000000000000
 51      -0.000000000000
 52       0.000000000000
 53       0.000000000000
 54       0.000000000000
 55       0.000000000000
 Sym=     1a
 Ene= 1.76220434341633E-01
 Spin= Alpha
 Occup= 0.000000
  1       0.000000000000
  2       0.000000000000
  3       0.000000000000
  4      -0.000000000000
  5       0.000000000000
  6      -0.000000000000
  7       0.000000000000
  8      -0.000000000000
  9       0.000000000000
 10      -0.000000000000
 11       0.000000000000
 12      -0.000000000000
 13       0.000000000000
 14      -0.000000000000
 15      -0.000000000000
 16      -0.000000000000
 17      -0.000000000000
 18       0.094933413355
 19       0.000000000000
 20      -0.000000000000
 21       0.065872108711
 22      -0.000000000000
 23      -0.332039792378
 24      -0.000000000000
 25       0.000000000000
 26      -0.230394763307
 27       0.000000000000
 28       1.023594616228
 29      -0.000000000000
 30       0.000000000000
 31       0.710248725428
 32       0.000000000000
 33      -0.000000000000
 34      -0.000000000000
 35      -0.000000000000
 36      -0.000000000000
 37      -0.000000000000
 38      -0.000000000000
 39       0.000000000000
 40       0.000000000000
 41      -0.000000000000
 42       0.000000000000
 43       0.000000000000
 44       0.000000000000
 45       0.000000000000
 46      -0.000000000000
 47       0.000000000000
 48      -0.000000000000
 49       0.000000000000
 50      -0.000000000000
 51      -0.000000000000
 52      -0.000000000000
 53      -0.000000000000
 54       0.000000000000
 55       0.000000000000
 Sym=     1a
 Ene= 1.76220434341634E-01
 Spin= Alpha
 Occup= 0.000000
  1      -0.000000000000
  2      -0.000000000000
  3      -0.000000000000
  4       0.000000000000
  5      -0.000000000000
  6      -0.000000000000
  7       0.000000000000
  8      -0.000000000000
  9       0.000000000000
 10      -0.000000000000
 11       0.000000000000
 12      -0.000000000000
 13       0.000000000000
 14      -0.000000000000
 15      -0.000000000000
 16      -0.000000000000
 17       0.000000000000
 18      -0.065872108711
 19      -0.000000000000
 20      -0.000000000000
 21       0.094933413355
 22      -0.000000000000
 23       0.230394763307
 24      -0.000000000000
 25      -0.000000000000
 26      -0.332039792378
 27       0.000000000000
 28      -0.710248725428
 29       0.000000000000
 30       0.000000000000
 31       1.023594616228
 32      -0.000000000000
 33       0.000000000000
 34      -0.000000000000
 35      -0.000000000000
 36      -0.000000000000
 37      -0.000000000000
 38      -0.000000000000
 39      -0.000000000000
 40      -0.000000000000
 41       0.000000000000
 42       0.000000000000
 43      -0.000000000000
 44       0.000000000000
 45      -0.000000000000
 46       0.000000000000
 47      -0.000000000000
 48       0.000000000000
 49       0.000000000000
 50      -0.000000000001
 51       0.000000000000
 52      -0.000000000000
 53      -0.000000000000
 54      -0.000000000000
 55       0.000000000000
 Sym=     1a
 Ene= 3.10209425419341E-01
 Spin= Alpha
 Occup= 0.000000
  1       0.000000000000
  2       0.000000000000
  3      -0.000000000000
  4       0.000000000000
  5      -0.000000000000
  6      -0.071785444888
  7      -0.000000000000
  8      -0.000000000000
  9      -1.647871815197
 10       0.000000000000
 11       0.000000000000
 12       2.030024527369
 13      -0.000000000000
 14      -0.000000000000
 15      -0.841680764964
 16       0.000000000000
 17       0.000000000000
 18      -0.000000000000
 19      -0.000000000000
 20       0.000000000000
 21       0.000000000000
 22       0.000000000000
 23      -0.000000000000
 24       0.000000000000
 25      -0.000000000000
 26      -0.000000000000
 27       0.000000000000
 28       0.000000000000
 29      -0.000000000000
 30      -0.000000000000
 31      -0.000000000000
 32      -0.000000000000
 33       0.000000000000
 34      -0.000000000009
 35       0.000000000000
 36       0.000000000000
 37      -0.000000000000
 38      -0.000000000011
 39       0.000000000000
 40      -0.000000000000
 41       0.000000000022
 42      -0.000000000000
 43      -0.000000000000
 44       0.000000000000
 45       0.000000000028
 46      -0.000000000000
 47      -0.000000000000
 48      -0.000000000000
 49       0.000000000000
 50       0.000000000000
 51       0.000000000000
 52      -0.000000000000
 53       0.000000000000
 54      -0.000000000000
 55       0.000000000000
 Sym=     1a
 Ene= 3.10209425419342E-01
 Spin= Alpha
 Occup= 0.000000
  1       0.000000000000
  2       0.000000000000
  3      -0.000000000000
  4      -0.000000000000
  5      -0.000000000000
  6       0.000000000000
  7      -0.000000000000
  8       0.071785444888
  9      -0.000000000000
 10       0.000000000000
 11       1.647871815197
 12       0.000000000000
 13      -0.000000000000
 14      -2.030024527369
 15      -0.000000000000
 16       0.000000000000
 17       0.841680764964
 18       0.000000000000
 19      -0.000000000000
 20      -0.000000000000
 21      -0.000000000000
 22      -0.000000000000
 23      -0.000000000000
 24      -0.000000000000
 25       0.000000000000
 26       0.000000000000
 27       0.000000000000
 28      -0.000000000000
 29      -0.000000000000
 30       0.000000000000
 31       0.000000000000
 32       0.000000000000
 33      -0.000000000014
 34      -0.000000000000
 35      -0.000000000000
 36       0.000000000000
 37      -0.000000000000
 38      -0.000000000000
 39      -0.000000000000
 40       0.000000000035
 41       0.000000000000
 42       0.000000000000
 43      -0.000000000000
 44       0.000000000000
 45       0.000000000000
 46       0.000000000000
 47       0.000000000000
 48      -0.000000000000
 49      -0.000000000000
 50       0.000000000000
 51      -0.000000000000
 52      -0.000000000000
 53       0.000000000000
 54       0.000000000000
 55       0.000000000000
 Sym=     1a
 Ene= 3.10209425419342E-01
 Spin= Alpha
 Occup= 0.000000
  1      -0.000000000000
  2      -0.000000000000
  3       0.000000000000
  4      -0.000000000000
  5       0.000000000000
  6       0.000000000000
  7       0.071785444888
  8      -0.000000000000
  9      -0.000000000000
 10       1.647871815197
 11       0.000000000000
 12       0.000000000000
 13      -2.030024527369
 14      -0.000000000000
 15       0.000000000000
 16       0.841680764964
 17       0.000000000000
 18      -0.000000000000
 19       0.000000000000
 20       0.000000000000
 21       0.000000000000
 22      -0.000000000000
 23       0.000000000000
 24      -0.000000000000
 25       0.000000000000
 26       0.000000000000
 27      -0.000000000000
 28       0.000000000000
 29       0.000000000000
 30      -0.000000000000
 31      -0.000000000000
 32       0.000000000000
 33       0.000000000000
 34       0.000000000000
 35       0.000000000009
 36       0.000000000000
 37       0.000000000000
 38       0.000000000000
 39      -0.000000000011
 40      -0.000000000000
 41      -0.000000000000
 42      -0.000000000022
 43       0.000000000000
 44       0.000000000000
 45      -0.000000000000
 46       0.000000000028
 47      -0.000000000000
 48       0.000000000000
 49       0.000000000000
 50      -0.000000000000
 51       0.000000000000
 52      -0.000000000000
 53       0.000000000000
 54       0.000000000000
 55       0.000000000000
 Sym=     1a
 Ene= 3.25514852777888E-01
 Spin= Alpha
 Occup= 0.000000
  1       0.329117940338
  2       0.865093858154
  3       4.306150724563
  4      -5.722474288149
  5       2.152058245036
  6       0.000000000000
  7       0.000000000000
  8      -0.000000000000
  9       0.000000000000
 10       0.000000000000
 11      -0.000000000000
 12       0.000000000000
 13       0.000000000000
 14      -0.000000000000
 15       0.000000000000
 16       0.000000000000
 17      -0.000000000000
 18      -0.000000000000
 19       0.000000000000
 20       0.000000000000
 21       0.000000000000
 22      -0.000000000000
 23      -0.000000000000
 24      -0.000000000000
 25      -0.000000000000
 26      -0.000000000000
 27       0.000000000000
 28      -0.000000000000
 29      -0.000000000000
 30       0.000000000000
 31      -0.000000000000
 32      -0.000000000000
 33      -0.000000000000
 34       0.000000000000
 35      -0.000000000000
 36       0.000000000000
 37      -0.000000000000
 38      -0.000000000000
 39      -0.000000000000
 40      -0.000000000000
 41      -0.000000000000
 42      -0.000000000000
 43       0.000000000000
 44       0.000000000000
 45       0.000000000000
 46      -0.000000000000
 47       0.000000000001
 48      -0.000000000000
 49       0.000000000000
 50       0.000000000000
 51      -0.000000000000
 52      -0.000000000000
 53      -0.000000000000
 54      -0.000000000000
 55       0.000000000000
 Sym=     1a
 Ene= 4.32248824012426E-01
 Spin= Alpha
 Occup= 0.000000
  1      -0.000000000000
  2      -0.000000000000
  3      -0.000000000000
  4       0.000000000000
  5      -0.000000000000
  6      -0.000000000000
  7       0.000000000000
  8      -0.000000000000
  9       0.000000000000
 10      -0.000000000000
 11       0.000000000000
 12      -0.000000000000
 13       0.000000000000
 14       0.000000000000
 15       0.000000000000
 16      -0.000000000000
 17      -0.000000000000
 18      -0.000000000000
 19       0.000000000000
 20      -0.000000000000
 21      -0.000000000000
 22      -0.000000000000
 23       0.000000000000
 24      -0.000000000000
 25       0.000000000000
 26       0.000000000000
 27      -0.000000000000
 28      -0.000000000000
 29       0.000000000000
 30      -0.000000000000
 31      -0.000000000000
 32      -0.000000000000
 33       0.000000000000
 34       0.000000000000
 35       0.000000000000
 36       0.000000000000
 37       0.339524844170
 38       0.000000000000
 39      -0.000000000000
 40       0.000000000000
 41      -0.000000000000
 42      -0.000000000000
 43       0.000000000000
 44      -1.235392400807
 45      -0.000000000000
 46      -0.000000000000
 47       0.000000000000
 48       0.000000000000
 49      -0.000000000000
 50       0.000000000000
 51      -0.000000000000
 52       0.000000000000
 53      -0.000000000000
 54      -0.000000000000
 55       0.000000000000
 Sym=     1a
 Ene= 4.32248824014040E-01
 Spin= Alpha
 Occup= 0.000000
  1       0.000000000000
  2       0.000000000000
  3       0.000000000000
  4       0.000000000000
  5      -0.000000000000
  6      -0.000000000000
  7      -0.000000000000
  8       0.000000000000
  9       0.000000000000
 10       0.000000000000
 11       0.000000000000
 12      -0.000000000000
 13      -0.000000000000
 14      -0.000000000000
 15      -0.000000000000
 16       0.000000000000
 17       0.000000000000
 18       0.000000000000
 19       0.000000000000
 20       0.000000000000
 21       0.000000000000
 22      -0.000000000000
 23      -0.000000000000
 24      -0.000000000000
 25      -0.000000000000
 26      -0.000000000000
 27      -0.000000000000
 28       0.000000000000
 29       0.000000000000