[Molden Format]
[Title]
 Molden file created by orca_2mkl for BaseName=mol

[Atoms] AU
Ge   1  32          0.0000000000         0.0000000000         0.0000000000 
[GTO]
  1 0
s  11 1.0 
  7233056.0345999999         0.8173426422
  1082886.1731000000         1.5299334982
   246481.4695900000         2.6491728572
    69862.4269550000         4.3353473459
    22815.8096620000         6.7762090421
     8246.5369297000        10.1368770696
     3219.9367257000        14.3489985887
     1336.5743706000        18.6413409473
      582.8773750100        20.7836014528
      264.5951136000        17.4469553041
      123.7782332000         8.5038265151
s   4 1.0 
     2311.1055804000         1.6226662335
      716.2708986800         6.7173136467
      275.4533091000        15.3945355782
      118.9329256500        16.8367483452
s   1 1.0 
       58.4356990850        15.0632531644
s   1 1.0 
       26.2615759730         8.2680040527
s   1 1.0 
       12.6648806710         4.7847683744
s   1 1.0 
        5.7269548505         2.6384745636
s   1 1.0 
        2.7555023203         1.5242657037
s   1 1.0 
        1.2432886754         0.8391489889
s   1 1.0 
        0.3310718385         0.3110654470
s   1 1.0 
        0.1596408137         0.1799981501
s   1 1.0 
        0.0684631789         0.0953900085
p   9 1.0 
    16555.7110740000        27.6731636398
     3914.9903745000        40.4932584352
     1269.4766518000        56.4458167281
      484.3543778900        72.2572400921
      204.6498582200        82.1233932292
       92.7910320940        77.4292700733
       44.0550602550        54.6567147295
       21.6013199310        24.3762378848
       10.7321692330         4.9857422375
p   2 1.0 
      100.8893396200       -83.2971925658
       36.6402547410      -110.2425788300
p   4 1.0 
        8.0343224115         4.7137309142
        4.5613438333         2.8581046865
        3.1794882223         2.3512164134
        0.9261204146         0.2278289527
p   1 1.0 
        1.7977040907         2.9671386875
p   1 1.0 
        0.4138686543         0.4731711494
p   1 1.0 
        0.1583079871         0.1423372666
p   1 1.0 
        0.0578770359         0.0404643846
d   7 1.0 
      420.9956592100       101.6519301871
      126.3620981800       110.0386234715
       48.6614735480       100.3960193029
       20.8803255270        72.6073516370
        9.5418229355        39.8536489838
        4.4353653868        15.0352494491
        2.0285421942         3.8621017240
d   1 1.0 
        0.8948493527         2.3471046727
d   1 1.0 
        0.3578607433         0.4720300943
d   1 1.0 
        0.1400000000         0.0913469699
f   1 1.0 
        0.5492000000         1.4804500824
f   1 1.0 
        0.2190000000         0.1870679287
g   1 1.0 
        0.4681000000         0.8163957038

[5D]
[9G]
[MO]
 Sym=     1a
 Ene= -4.05245549278398E+02
 Spin= Alpha
 Occup= 1.000000
  1      -0.932063734357
  2       0.000002205016
  3      -0.092882870552
  4      -0.003100082744
  5      -0.000959191867
  6       0.000516929175
  7      -0.000223594767
  8       0.000104300580
  9      -0.000041499390
 10       0.000028169228
 11      -0.000008051376
 12      -0.000000000000
 13      -0.000000000000
 14       0.000000000000
 15      -0.000000000000
 16      -0.000000000000
 17       0.000000000000
 18       0.000000000000
 19       0.000000000000
 20      -0.000000000000
 21       0.000000000000
 22      -0.000000000000
 23       0.000000000000
 24       0.000000000000
 25       0.000000000000
 26      -0.000000000000
 27       0.000000000000
 28      -0.000000000000
 29       0.000000000000
 30       0.000000000000
 31       0.000000000000
 32      -0.000000000000
 33       0.000000488911
 34      -0.000000000000
 35      -0.000000000000
 36       0.000000846819
 37       0.000000000000
 38      -0.000000357578
 39       0.000000000000
 40       0.000000000000
 41      -0.000000619343
 42      -0.000000000000
 43       0.000000058119
 44      -0.000000000000
 45      -0.000000000000
 46       0.000000100664
 47       0.000000000000
 48      -0.000000068093
 49      -0.000000000000
 50       0.000000000000
 51      -0.000000117940
 52       0.000000000000
 53       0.000000000000
 54       0.000000000000
 55      -0.000000000000
 56       0.000000000000
 57       0.000000000000
 58       0.000000000000
 59      -0.000000000000
 60      -0.000000000000
 61      -0.000000000000
 62       0.000000000000
 63      -0.000000000000
 64       0.000000000000
 65      -0.000000000000
 66       0.000000000000
 67      -0.000000000481
 68       0.000000000000
 69      -0.000000000000
 70      -0.000000000717
 71       0.000000000000
 72       0.000000000000
 73      -0.000000000000
 74       0.000000000948
 75       0.000000000000
 Sym=     1a
 Ene= -5.21498677613716E+01
 Spin= Alpha
 Occup= 1.000000
  1       0.292716442428
  2       0.178280175295
  3      -0.008757706316
  4      -0.495657506161
  5      -0.530918949748
  6      -0.112415458852
  7       0.001736374884
  8      -0.002597983117
  9       0.000653105127
 10      -0.000423109118
 11       0.000124127499
 12      -0.000000000000
 13       0.000000000000
 14       0.000000000000
 15      -0.000000000000
 16      -0.000000000000
 17       0.000000000000
 18       0.000000000000
 19       0.000000000000
 20      -0.000000000000
 21      -0.000000000000
 22      -0.000000000000
 23       0.000000000000
 24       0.000000000000
 25       0.000000000000
 26      -0.000000000000
 27       0.000000000000
 28       0.000000000000
 29       0.000000000000
 30      -0.000000000000
 31      -0.000000000000
 32      -0.000000000000
 33       0.000015283907
 34      -0.000000000000
 35       0.000000000000
 36       0.000026472504
 37       0.000000000000
 38      -0.000005197943
 39       0.000000000000
 40      -0.000000000000
 41      -0.000009003101
 42      -0.000000000000
 43       0.000010760198
 44      -0.000000000000
 45      -0.000000000000
 46       0.000018637210
 47       0.000000000000
 48      -0.000001622169
 49      -0.000000000000
 50       0.000000000000
 51      -0.000002809678
 52       0.000000000000
 53      -0.000000000000
 54      -0.000000000000
 55      -0.000000000000
 56      -0.000000000000
 57      -0.000000000000
 58      -0.000000000000
 59      -0.000000000000
 60      -0.000000000000
 61       0.000000000000
 62       0.000000000000
 63      -0.000000000000
 64       0.000000000000
 65       0.000000000000
 66       0.000000000000
 67       0.000000024389
 68      -0.000000000000
 69      -0.000000000000
 70       0.000000036358
 71      -0.000000000000
 72      -0.000000000000
 73      -0.000000000000
 74      -0.000000048097
 75       0.000000000000
 Sym=     1a
 Ene= -4.62373381761646E+01
 Spin= Alpha
 Occup= 1.000000
  1       0.000000000000
  2       0.000000000000
  3       0.000000000000
  4       0.000000000000
  5       0.000000000000
  6      -0.000000000000
  7      -0.000000000000
  8      -0.000000000000
  9      -0.000000000000
 10      -0.000000000000
 11      -0.000000000000
 12      -0.000000000000
 13       0.000000000000
 14      -0.983608809381
 15      -0.000000000000
 16       0.000000000000
 17       0.001477896416
 18       0.000000000000
 19      -0.000000000000
 20      -0.038625910358
 21      -0.000000000000
 22       0.000000000000
 23       0.010818859933
 24      -0.000000000000
 25      -0.000000000000
 26       0.002901039967
 27       0.000000000000
 28       0.000000000000
 29      -0.001105681557
 30      -0.000000000000
 31      -0.000000000000
 32       0.000326457578
 33      -0.000000000000
 34       0.000000000000
 35      -0.000000000000
 36       0.000000000000
 37       0.000000000000
 38       0.000000000000
 39       0.000000000000
 40       0.000000000000
 41      -0.000000000000
 42      -0.000000000000
 43       0.000000000000
 44       0.000000000000
 45      -0.000000000000
 46      -0.000000000000
 47      -0.000000000000
 48      -0.000000000000
 49      -0.000000000000
 50      -0.000000000000
 51       0.000000000000
 52      -0.000000000000
 53       0.000001891140
 54       0.000000000000
 55       0.000000000000
 56       0.000002441452
 57       0.000000000000
 58       0.000000000000
 59       0.000000000000
 60      -0.000000428285
 61      -0.000000000000
 62       0.000000000000
 63      -0.000000552913
 64      -0.000000000000
 65      -0.000000000000
 66      -0.000000000000
 67      -0.000000000000
 68      -0.000000000000
 69      -0.000000000000
 70       0.000000000000
 71       0.000000000000
 72      -0.000000000000
 73       0.000000000000
 74      -0.000000000000
 75       0.000000000000
 Sym=     1a
 Ene= -4.62373381761642E+01
 Spin= Alpha
 Occup= 1.000000
  1       0.000000000000
  2       0.000000000000
  3       0.000000000000
  4       0.000000000000
  5       0.000000000000
  6       0.000000000000
  7      -0.000000000000
  8      -0.000000000000
  9      -0.000000000000
 10      -0.000000000000
 11      -0.000000000000
 12      -0.983608809381
 13      -0.000000000000
 14      -0.000000000000
 15       0.001477896416
 16      -0.000000000000
 17      -0.000000000000
 18      -0.038625910358
 19       0.000000000000
 20       0.000000000000
 21       0.010818859933
 22      -0.000000000000
 23      -0.000000000000
 24       0.002901039967
 25       0.000000000000
 26      -0.000000000000
 27      -0.001105681557
 28      -0.000000000000
 29       0.000000000000
 30       0.000326457578
 31       0.000000000000
 32      -0.000000000000
 33      -0.000000000000
 34      -0.000000000000
 35      -0.000000000000
 36       0.000000000000
 37       0.000000000000
 38       0.000000000000
 39       0.000000000000
 40       0.000000000000
 41      -0.000000000000
 42      -0.000000000000
 43       0.000000000000
 44      -0.000000000000
 45       0.000000000000
 46      -0.000000000000
 47      -0.000000000000
 48      -0.000000000000
 49       0.000000000000
 50      -0.000000000000
 51       0.000000000000
 52       0.000000000000
 53      -0.000000000000
 54       0.000000772055
 55       0.000000000000
 56      -0.000000000000
 57       0.000000000000
 58      -0.000002990155
 59       0.000000000000
 60      -0.000000000000
 61      -0.000000174846
 62       0.000000000000
 63      -0.000000000000
 64       0.000000000000
 65       0.000000677177
 66      -0.000000000000
 67      -0.000000000000
 68      -0.000000000000
 69      -0.000000000000
 70       0.000000000000
 71      -0.000000000000
 72      -0.000000000000
 73      -0.000000000000
 74      -0.000000000000
 75       0.000000000000
 Sym=     1a
 Ene= -4.62364907269257E+01
 Spin= Alpha
 Occup= 1.000000
  1      -0.000000000000
  2      -0.000000000000
  3       0.000000000000
  4      -0.000000000000
  5       0.000000000000
  6       0.000000000000
  7      -0.000000000000
  8       0.000000000000
  9       0.000000000000
 10       0.000000000000
 11       0.000000000000
 12      -0.000000000000
 13      -0.983535471228
 14       0.000000000000
 15      -0.000000000000
 16       0.001480929767
 17       0.000000000000
 18       0.000000000000
 19      -0.038837904700
 20      -0.000000000000
 21      -0.000000000000
 22       0.010949232006
 23       0.000000000000
 24      -0.000000000000
 25       0.002877095691
 26      -0.000000000000
 27      -0.000000000000
 28      -0.001087822116
 29       0.000000000000
 30       0.000000000000
 31       0.000319869089
 32       0.000000000000
 33      -0.000000000000
 34      -0.000000000000
 35       0.000000000000
 36       0.000000000000
 37      -0.000000000000
 38       0.000000000000
 39      -0.000000000000
 40      -0.000000000000
 41       0.000000000000
 42       0.000000000000
 43      -0.000000000000
 44       0.000000000000
 45      -0.000000000000
 46       0.000000000000
 47       0.000000000000
 48       0.000000000000
 49      -0.000000000000
 50       0.000000000000
 51      -0.000000000000
 52      -0.000000000000
 53       0.000000000000
 54      -0.000000000000
 55       0.000002263318
 56      -0.000000000000
 57       0.000000000000
 58      -0.000000000000
 59      -0.000002921930
 60      -0.000000000000
 61       0.000000000000
 62      -0.000000547887
 63       0.000000000000
 64      -0.000000000000
 65       0.000000000000
 66       0.000000707319
 67       0.000000000000
 68      -0.000000000000
 69      -0.000000000000
 70       0.000000000000
 71      -0.000000000000
 72      -0.000000000000
 73      -0.000000000000
 74       0.000000000000
 75       0.000000000000
 Sym=     1a
 Ene= -7.19291505170031E+00
 Spin= Alpha
 Occup= 1.000000
  1      -0.112416161376
  2      -0.081428256047
  3       0.001846481286
  4       0.308853001020
  5       0.483729703243
  6      -0.079702256121
  7      -0.721547047205
  8      -0.441685824026
  9      -0.023988365150
 10       0.007995188738
 11      -0.001981570976
 12       0.000000000000
 13       0.000000000000
 14      -0.000000000000
 15       0.000000000000
 16       0.000000000000
 17      -0.000000000000
 18      -0.000000000000
 19      -0.000000000000
 20       0.000000000000
 21      -0.000000000000
 22       0.000000000000
 23      -0.000000000000
 24      -0.000000000000
 25      -0.000000000000
 26       0.000000000000
 27      -0.000000000000
 28       0.000000000000
 29      -0.000000000000
 30       0.000000000000
 31      -0.000000000000
 32       0.000000000000
 33       0.000134510682
 34       0.000000000000
 35      -0.000000000000
 36       0.000232979335
 37       0.000000000000
 38       0.000580670671
 39      -0.000000000000
 40       0.000000000000
 41       0.001005751105
 42      -0.000000000000
 43      -0.000378476494
 44       0.000000000000
 45      -0.000000000000
 46      -0.000655540517
 47       0.000000000000
 48       0.000050189549
 49       0.000000000000
 50      -0.000000000000
 51       0.000086930848
 52       0.000000000000
 53       0.000000000000
 54       0.000000000000
 55       0.000000000000
 56      -0.000000000000
 57       0.000000000000
 58      -0.000000000000
 59      -0.000000000000
 60       0.000000000000
 61      -0.000000000000
 62       0.000000000000
 63      -0.000000000000
 64      -0.000000000000
 65       0.000000000000
 66       0.000000000000
 67      -0.000000359953
 68      -0.000000000000
 69       0.000000000000
 70      -0.000000536587
 71       0.000000000000
 72       0.000000000000
 73       0.000000000000
 74       0.000000709838
 75       0.000000000000
 Sym=     1a
 Ene= -5.16534601841254E+00
 Spin= Alpha
 Occup= 1.000000
  1      -0.000000000000
  2      -0.000000000000
  3      -0.000000000000
  4      -0.000000000000
  5      -0.000000000000
  6       0.000000000000
  7       0.000000000000
  8      -0.000000000000
  9       0.000000000000
 10      -0.000000000000
 11       0.000000000000
 12       0.000000000000
 13      -0.000000000000
 14       0.387442018359
 15       0.000000000000
 16      -0.000000000000
 17      -0.030335129410
 18      -0.000000000000
 19      -0.000000000000
 20      -0.754722124388
 21       0.000000000000
 22      -0.000000000000
 23      -0.342998059485
 24      -0.000000000000
 25       0.000000000000
 26      -0.012169211711
 27       0.000000000000
 28       0.000000000000
 29      -0.000715329700
 30      -0.000000000000
 31      -0.000000000000
 32       0.000032764014
 33       0.000000000000
 34       0.000000000000
 35       0.000000000000
 36       0.000000000000
 37       0.000000000000
 38       0.000000000000
 39       0.000000000000
 40       0.000000000000
 41      -0.000000000000
 42      -0.000000000000
 43      -0.000000000000
 44      -0.000000000000
 45       0.000000000000
 46      -0.000000000000
 47      -0.000000000000
 48      -0.000000000000
 49      -0.000000000000
 50      -0.000000000000
 51      -0.000000000000
 52      -0.000000000000
 53       0.000224965015
 54      -0.000000000000
 55       0.000000000000
 56       0.000290428585
 57       0.000000000000
 58       0.000000000000
 59      -0.000000000000
 60      -0.000207736652
 61      -0.000000000000
 62       0.000000000000
 63      -0.000268186865
 64      -0.000000000000
 65       0.000000000000
 66       0.000000000000
 67      -0.000000000000
 68       0.000000000000
 69       0.000000000000
 70      -0.000000000000
 71       0.000000000000
 72       0.000000000000
 73       0.000000000000
 74       0.000000000000
 75       0.000000000000
 Sym=     1a
 Ene= -5.16534601841254E+00
 Spin= Alpha
 Occup= 1.000000
  1      -0.000000000000
  2      -0.000000000000
  3      -0.000000000000
  4      -0.000000000000
  5      -0.000000000000
  6      -0.000000000000
  7       0.000000000000
  8       0.000000000000
  9       0.000000000000
 10       0.000000000000
 11       0.000000000000
 12      -0.387442018359
 13       0.000000000000
 14      -0.000000000000
 15       0.030335129410
 16       0.000000000000
 17      -0.000000000000
 18       0.754722124388
 19      -0.000000000000
 20       0.000000000000
 21       0.342998059485
 22      -0.000000000000
 23       0.000000000000
 24       0.012169211711
 25       0.000000000000
 26      -0.000000000000
 27       0.000715329700
 28      -0.000000000000
 29       0.000000000000
 30      -0.000032764014
 31       0.000000000000
 32      -0.000000000000
 33      -0.000000000000
 34      -0.000000000000
 35      -0.000000000000
 36       0.000000000000
 37       0.000000000000
 38       0.000000000000
 39       0.000000000000
 40       0.000000000000
 41      -0.000000000000
 42      -0.000000000000
 43       0.000000000000
 44      -0.000000000000
 45       0.000000000000
 46      -0.000000000000
 47       0.000000000000
 48      -0.000000000000
 49       0.000000000000
 50      -0.000000000000
 51       0.000000000000
 52       0.000000000000
 53       0.000000000000
 54      -0.000091841583
 55       0.000000000000
 56       0.000000000000
 57       0.000000000000
 58       0.000355700920
 59      -0.000000000000
 60       0.000000000000
 61       0.000084808133
 62       0.000000000000
 63       0.000000000000
 64      -0.000000000000
 65      -0.000328460487
 66      -0.000000000000
 67       0.000000000000
 68      -0.000000000000
 69      -0.000000000000
 70      -0.000000000000
 71      -0.000000000000
 72       0.000000000000
 73      -0.000000000000
 74       0.000000000000
 75       0.000000000000
 Sym=     1a
 Ene= -5.16474068868814E+00
 Spin= Alpha
 Occup= 1.000000
  1      -0.000000000000
  2      -0.000000000000
  3       0.000000000000
  4       0.000000000000
  5      -0.000000000000
  6      -0.000000000000
  7       0.000000000000
  8       0.000000000000
  9       0.000000000000
 10      -0.000000000000
 11      -0.000000000000
 12       0.000000000000
 13       0.386295230215
 14      -0.000000000000
 15       0.000000000000
 16      -0.030304496610
 17      -0.000000000000
 18       0.000000000000
 19      -0.750397531313
 20      -0.000000000000
 21       0.000000000000
 22      -0.345955785011
 23      -0.000000000000
 24       0.000000000000
 25      -0.015089689668
 26       0.000000000000
 27      -0.000000000000
 28       0.000739592710
 29       0.000000000000
 30      -0.000000000000
 31      -0.000403147456
 32      -0.000000000000
 33      -0.000000000000
 34       0.000000000000
 35      -0.000000000000
 36      -0.000000000000
 37      -0.000000000000
 38       0.000000000000
 39      -0.000000000000
 40       0.000000000000
 41       0.000000000000
 42       0.000000000000
 43      -0.000000000000
 44       0.000000000000
 45      -0.000000000000
 46      -0.000000000000
 47       0.000000000000
 48       0.000000000000
 49      -0.000000000000
 50       0.000000000000
 51       0.000000000000
 52      -0.000000000000
 53       0.000000000000
 54       0.000000000000
 55       0.000275041467
 56       0.000000000000
 57       0.000000000000
 58       0.000000000000
 59      -0.000355077007
 60      -0.000000000000
 61      -0.000000000000
 62      -0.000255210664
 63      -0.000000000000
 64      -0.000000000000
 65       0.000000000000
 66       0.000329475551
 67       0.000000000000
 68       0.000000000000
 69      -0.000000000000
 70      -0.000000000000
 71      -0.000000000000
 72       0.000000000000
 73      -0.000000000000
 74       0.000000000000
 75       0.000000000000
 Sym=     1a
 Ene= -1.64057741458256E+00
 Spin= Alpha
 Occup= 1.000000
  1       0.000197304351
  2       0.000135019077
  3       0.000050973841
  4      -0.000778912985
  5      -0.000616151094
  6      -0.000788021524
  7       0.005929334738
  8      -0.004519230119
  9      -0.006359811694
 10       0.010089392939
 11       0.000994097603
 12       0.000000000000
 13      -0.000000000000
 14       0.000000000000
 15       0.000000000000
 16      -0.000000000000
 17       0.000000000000
 18      -0.000000000000
 19       0.000000000000
 20      -0.000000000000
 21       0.000000000000
 22      -0.000000000000
 23       0.000000000000
 24       0.000000000000
 25       0.000000000000
 26      -0.000000000000
 27      -0.000000000000
 28      -0.000000000000
 29       0.000000000000
 30      -0.000000000000
 31       0.000000000000
 32      -0.000000000000
 33       0.428281607421
 34      -0.000000000000
 35      -0.000000000000
 36       0.741805503985
 37       0.000000000000
 38       0.109318566477
 39       0.000000000000
 40      -0.000000000000
 41       0.189345311345
 42      -0.000000000000
 43       0.029920984698
 44      -0.000000000000
 45      -0.000000000000
 46       0.051824665708
 47      -0.000000000000
 48       0.000727535815
 49      -0.000000000000
 50      -0.000000000000
 51       0.001260128995
 52       0.000000000000
 53       0.000000000000
 54      -0.000000000000
 55       0.000000000000
 56       0.000000000000
 57       0.000000000000
 58       0.000000000000
 59       0.000000000000
 60      -0.000000000000
 61       0.000000000000
 62      -0.000000000000
 63       0.000000000000
 64      -0.000000000000
 65       0.000000000000
 66      -0.000000000000
 67      -0.000232993118
 68       0.000000000000
 69      -0.000000000000
 70      -0.000347325634
 71       0.000000000000
 72       0.000000000000
 73       0.000000000000
 74       0.000459468626
 75       0.000000000000
 Sym=     1a
 Ene= -1.63815355892493E+00
 Spin= Alpha
 Occup= 1.000000
  1      -0.000000000000
  2       0.000000000000
  3      -0.000000000000
  4       0.000000000000
  5      -0.000000000000
  6       0.000000000000
  7      -0.000000000000
  8       0.000000000000
  9      -0.000000000000
 10       0.000000000000
 11       0.000000000000
 12      -0.000000000000
 13      -0.000000000000
 14      -0.000000000000
 15       0.000000000000
 16      -0.000000000000
 17      -0.000000000000
 18      -0.000000000000
 19      -0.000000000000
 20       0.000000000000
 21       0.000000000000
 22       0.000000000000
 23      -0.000000000000
 24      -0.000000000000
 25      -0.000000000000
 26      -0.000000000000
 27       0.000000000000
 28       0.000000000000
 29       0.000000000000
 30      -0.000000000000
 31      -0.000000000000
 32      -0.000000000000
 33       0.000000000000
 34      -0.000000000000
 35      -0.856574200233
 36       0.000000000000
 37       0.000000000000
 38       0.000000000000
 39       0.000000000000
 40      -0.218079034031
 41       0.000000000000
 42      -0.000000000000
 43       0.000000000000
 44      -0.000000000000
 45      -0.060706427895
 46       0.000000000000
 47       0.000000000000
 48       0.000000000000
 49      -0.000000000000
 50      -0.001944799679
 51       0.000000000000
 52       0.000000000000
 53      -0.000000000000
 54      -0.000000000000
 55       0.000000000000
 56       0.000000000000
 57      -0.000000000000
 58       0.000000000000
 59      -0.000000000000
 60       0.000000000000
 61      -0.000000000000
 62      -0.000000000000
 63       0.000000000000
 64       0.000000000000
 65      -0.000000000000
 66      -0.000000000000
 67      -0.000000000000
 68       0.000000000000
 69       0.000425195696
 70      -0.000000000000
 71       0.000000000000
 72       0.000000000000
 73      -0.000374987357
 74      -0.000000000000
 75       0.000000000000
 Sym=     1a
 Ene= -1.63815355892493E+00
 Spin= Alpha
 Occup= 1.000000
  1       0.000000000000
  2       0.000000000000
  3       0.000000000000
  4       0.000000000000
  5       0.000000000000
  6       0.000000000000
  7       0.000000000000
  8       0.000000000000
  9       0.000000000000
 10       0.000000000000
 11       0.000000000000
 12       0.000000000000
 13       0.000000000000
 14      -0.000000000000
 15       0.000000000000
 16       0.000000000000
 17      -0.000000000000
 18      -0.000000000000
 19      -0.000000000000
 20      -0.000000000000
 21       0.000000000000
 22       0.000000000000
 23       0.000000000000
 24      -0.000000000000
 25       0.000000000000
 26       0.000000000000
 27      -0.000000000000
 28       0.000000000000
 29      -0.000000000000
 30       0.000000000000
 31      -0.000000000000
 32       0.000000000000
 33      -0.000000000000
 34       0.000000000000
 35      -0.000000000000
 36       0.000000000000
 37      -0.856574200233
 38       0.000000000000
 39      -0.000000000000
 40       0.000000000000
 41      -0.000000000000
 42      -0.218079034031
 43      -0.000000000000
 44      -0.000000000000
 45      -0.000000000000
 46       0.000000000000
 47      -0.060706427895
 48       0.000000000000
 49       0.000000000000
 50       0.000000000000
 51      -0.000000000000
 52      -0.001944799679
 53      -0.000000000000
 54       0.000000000000
 55       0.000000000000
 56      -0.000000000000
 57      -0.000000000000
 58       0.000000000000
 59      -0.000000000000
 60      -0.000000000000
 61      -0.000000000000
 62      -0.000000000000
 63       0.000000000000
 64       0.000000000000
 65       0.000000000000
 66       0.000000000000
 67       0.000000000000
 68      -0.000000000000
 69      -0.000000000000
 70       0.000000000000
 71       0.000200439173
 72       0.000000000000
 73      -0.000000000000
 74      -0.000000000000
 75      -0.000530312206
 Sym=     1a
 Ene= -1.63127412300599E+00
 Spin= Alpha
 Occup= 1.000000
  1       0.000000000000
  2       0.000000000000
  3       0.000000000000
  4      -0.000000000000
  5       0.000000000000
  6      -0.000000000000
  7       0.000000000000
  8      -0.000000000000
  9       0.000000000000
 10      -0.000000000000
 11       0.000000000000
 12       0.000000000000
 13      -0.000000000000
 14      -0.000000000000
 15       0.000000000000
 16       0.000000000000
 17      -0.000000000000
 18      -0.000000000000
 19       0.000000000000
 20       0.000000000000
 21       0.000000000000
 22      -0.000000000000
 23      -0.000000000000
 24      -0.000000000000
 25       0.000000000000
 26      -0.000000000000
 27       0.000000000000
 28      -0.000000000000
 29       0.000000000000
 30      -0.000000000000
 31      -0.000000000000
 32      -0.000000000000
 33      -0.741689531135
 34      -0.000000000000
 35       0.000000000000
 36       0.428214650465
 37       0.000000000000
 38      -0.187343742222
 39       0.000000000000
 40      -0.000000000000
 41       0.108162960005
 42      -0.000000000000
 43      -0.055088219842
 44      -0.000000000000
 45      -0.000000000000
 46       0.031805198555
 47       0.000000000000
 48      -0.003280629395
 49      -0.000000000000
 50      -0.000000000000
 51       0.001894072264
 52       0.000000000000
 53      -0.000000000000
 54       0.000000000000
 55       0.000000000000
 56      -0.000000000000
 57      -0.000000000000
 58       0.000000000000
 59      -0.000000000000
 60       0.000000000000
 61      -0.000000000000
 62      -0.000000000000
 63       0.000000000000
 64       0.000000000000
 65      -0.000000000000
 66      -0.000000000000
 67       0.000223530688
 68      -0.000000000000
 69       0.000000000000
 70       0.000199931925
 71      -0.000000000000
 72       0.000000000000
 73      -0.000000000000
 74       0.000264485077
 75       0.000000000000
 Sym=     1a
 Ene= -1.63127412300488E+00
 Spin= Alpha
 Occup= 1.000000
  1      -0.000000000000
  2      -0.000000000000
  3       0.000000000000
  4      -0.000000000000
  5       0.000000000000
  6      -0.000000000000
  7       0.000000000000
  8      -0.000000000000
  9       0.000000000000
 10      -0.000000000000
 11       0.000000000000
 12      -0.000000000000
 13      -0.000000000000
 14       0.000000000000
 15      -0.000000000000
 16       0.000000000000
 17       0.000000000000
 18       0.000000000000
 19      -0.000000000000
 20       0.000000000000
 21      -0.000000000000
 22       0.000000000000
 23      -0.000000000000
 24       0.000000000000
 25      -0.000000000000
 26       0.000000000000
 27       0.000000000000
 28       0.000000000000
 29      -0.000000000000
 30      -0.000000000000
 31      -0.000000000000
 32       0.000000000000
 33       0.000000000000
 34      -0.856429300916
 35      -0.000000000000
 36       0.000000000000
 37       0.000000000000
 38      -0.000000000000
 39      -0.216325920007
 40       0.000000000000
 41      -0.000000000000
 42      -0.000000000000
 43       0.000000000000
 44      -0.063610397110
 45      -0.000000000000
 46      -0.000000000000
 47      -0.000000000000
 48      -0.000000000000
 49      -0.003788144529
 50      -0.000000000000
 51      -0.000000000000
 52       0.000000000000
 53      -0.000000000000
 54      -0.000000000000
 55      -0.000000000000
 56       0.000000000000
 57       0.000000000000
 58      -0.000000000000
 59      -0.000000000000
 60       0.000000000000
 61       0.000000000000
 62       0.000000000000
 63      -0.000000000000
 64      -0.000000000000
 65       0.000000000000
 66       0.000000000000
 67       0.000000000000
 68       0.000141373220
 69      -0.000000000000
 70       0.000000000000
 71       0.000000000000
 72      -0.000374038382