 
Create O   file=QZ4P-O
XC
  HartreeFock
End
  HartreeFock

 *******************************************************************************
 *                                                                             *
 *  -------------------------------------                                      *
 *   Amsterdam Density Functional  (ADF)         2018                          *
 *  -------------------------------------                                      *
 *                                               r70630 2018-11-24             *
 *                                                                             *
 *                                                                             *
 *                              =================                              *
 *                              |               |                              *
 *                              |     A D F     |                              *
 *                              |               |                              *
 *                              =================                              *
 *                                                                             *
 *                                                                             *
 *   Online information and documentation:  https://www.scm.com/support/       *
 *   E-mail:  support@scm.com   info@scm.com                                   *
 *                                                                             *
 *   Scientific publications using ADF results must be properly referenced     *
 *   See the User Manuals (or the web site) for recommended citations          *
 *   The terms and conditions of the End User License Agreement apply to       *
 *   the use of ADF, https://www.scm.com/license-terms/                        *
 *                                                                             *
 **********************  x86_64_linux_intel / intelmpi  ************************
 
 Licensed to: Mr. Vladimir Konjkov / Florida Institute of Technology / Melbourne / Florida / USA
 SCM User ID: u21173
  
 ADF 2018  RunTime: Mar29-2019 09:18:53  Nodes: 1  Procs: 1

 Temporary files are created in /tmp/kid_0.1693746744

 Oxygen (QZ, all electron, 8S 4P 2D 2F)



 ===========================
 A T T A C H E D   F I L E S
 ===========================
  
 CREATE - Data File:    QZ4P-O
                        Oxygen (QZ, all electron, 8S 4P 2D 2F)



 ===============================
 M O D E L   P A R A M E T E R S
 ===============================
  
 DENSITY FUNCTIONAL POTENTIAL (scf)
    Hybrid:                            HARTREEFOCK                             == Not Default ==

 SPIN  (restricted / unrestr.)
    Molecule:                          Restricted                               

 OTHER ASPECTS
    Relativistic Corrections:          ---                                      

    Nuclear Charge Density Model:      Point Charge Nuclei                      
    Core Treatment:                    Frozen Orbital(s)                        

    Hyperfine or Zeeman Interaction:   ---                                      



 =====================================
 S Y M M E T R Y ,   E L E C T R O N S
 =====================================
  
 Symmetry: ATOM

 Irreducible Representations, including subspecies
 -------------------------------------------------
 S
 P:x  P:y  P:z
 D:z2  D:x2-y2  D:xy  D:xz  D:yz
 F:z3  F:z  F:xyz  F:z2x  F:z2y  F:x  F:y


 Configuration of Valence Electrons
 ==================================

          Occupation Numbers
          -------------------------------------------------
 S        2*2
 P        4
 D        0
 F        0
          -------------------------------------------------

 Total:   8

 Net Charge: 0 (Nuclei minus Electrons)

 Preset values for MO occupations will be applied through SCF cycle no. 1000000
 Thereafter, the program will assign electrons to MOs that are spatially
 similar to the occupied MOs in a "reference" cycle ("KeepOrbitals").
 The reference cycle is always the PREVIOUS cycle: it will evolve with
 the SCF procedure.



 ================================
 (Slater-type)  F U N C T I O N S  ***  (Basis and Fit)  ***
 ================================
  

 Atom Type    1  (O)
 ==============

 Valence Basis Sets:  16
 -----------------------
   1 S   14.800000
   1 S    8.750000
   1 S    6.650000
   2 S    7.100000
   2 S    3.200000
   2 S    2.050000
   2 S    1.500000
   2 S    0.750000
   2 P    5.700000
   2 P    3.050000
   2 P    1.650000
   2 P    1.000000
   3 D    2.500000
   3 D    1.500000
   4 F    4.000000
   4 F    2.000000

 Charge Fitting Sets (for the computation of the Coulomb Potential):  37
 -----------------------------------------------------------------------
   1 S   29.600000
   1 S   22.760000
   1 S   17.500000
   1 S   11.580000
   2 S   14.160000
   2 S   10.290000
   2 S    7.480000
   2 S    5.430000
   3 S    5.780000
   3 S    4.410000
   3 S    3.370000
   3 S    2.570000
   3 S    1.960000
   3 S    1.500000
   2 P   14.450000
   2 P    9.770000
   2 P    6.610000
   3 P    6.560000
   3 P    4.710000
   3 P    3.390000
   3 P    2.430000
   3 P    1.750000
   3 D   11.400000
   3 D    7.640000
   3 D    5.120000
   4 D    4.550000
   4 D    3.200000
   4 D    2.250000
   4 F   12.750000
   4 F    8.120000
   4 F    5.170000
   5 F    4.130000
   5 F    2.750000
   5 G    9.700000
   5 G    6.560000
   5 G    4.440000
   5 G    3.000000


 BAS: List of all Elementary Cartesian Basis Functions
 =====================================================

 The numbering in the list below (to the right of the function characteristics) is referred
 to in print-outs of MO eigenvectors and Mulliken populations in the BAS representation
 (as contrasted to the SFO representation).

 Notes:
 1. The functions are characterized by a polynomial prefactor (powers of x,y,z and r) and
    an exponential decay factor alpha.
 2. Since the basis sets are specific for an atom TYPE, the individual functions occur on
    all atoms of that type.
 3. The word 'Core' in the left margin signals that it is a Core Function (CF) : not a
    degree of freedom in the valence set, but only used to ensure orthogonalization of
    the other valence basis functions on the frozen Core Orbitals.


 (power of) X  Y  Z  R     Alpha  on Atom
            ==========     =====     ==========

 O                                    1
                                  ---------------------------------------------------------------------------
            0  0  0  0    14.800      1
            0  0  0  0     8.750      2
            0  0  0  0     6.650      3
            0  0  0  1     7.100      4
            0  0  0  1     3.200      5
            0  0  0  1     2.050      6
            0  0  0  1     1.500      7
            0  0  0  1     0.750      8
            1  0  0  0     5.700      9
            0  1  0  0     5.700     10
            0  0  1  0     5.700     11
            1  0  0  0     3.050     12
            0  1  0  0     3.050     13
            0  0  1  0     3.050     14
            1  0  0  0     1.650     15
            0  1  0  0     1.650     16
            0  0  1  0     1.650     17
            1  0  0  0     1.000     18
            0  1  0  0     1.000     19
            0  0  1  0     1.000     20
            2  0  0  0     2.500     21
            1  1  0  0     2.500     22
            1  0  1  0     2.500     23
            0  2  0  0     2.500     24
            0  1  1  0     2.500     25
            0  0  2  0     2.500     26
            2  0  0  0     1.500     27
            1  1  0  0     1.500     28
            1  0  1  0     1.500     29
            0  2  0  0     1.500     30
            0  1  1  0     1.500     31
            0  0  2  0     1.500     32
            3  0  0  0     4.000     33
            2  1  0  0     4.000     34
            2  0  1  0     4.000     35
            1  2  0  0     4.000     36
            1  1  1  0     4.000     37
            1  0  2  0     4.000     38
            0  3  0  0     4.000     39
            0  2  1  0     4.000     40
            0  1  2  0     4.000     41
            0  0  3  0     4.000     42
            3  0  0  0     2.000     43
            2  1  0  0     2.000     44
            2  0  1  0     2.000     45
            1  2  0  0     2.000     46
            1  1  1  0     2.000     47
            1  0  2  0     2.000     48
            0  3  0  0     2.000     49
            0  2  1  0     2.000     50
            0  1  2  0     2.000     51
            0  0  3  0     2.000     52

 Total number of charge fitting functions (nprimf)       184
 Total number of Cartesian basis functions (naos)         52
 Total number of Cartesian core functions  (ncos)          0



 BAS: List of all Elementary Cartesian Basis Functions
 =====================================================

 The numbering in the list below (to the right of the function characteristics) is referred
 to in print-outs of MO eigenvectors and Mulliken populations in the BAS representation
 (as contrasted to the SFO representation).

 Notes:
 1. The functions are characterized by a polynomial prefactor (powers of x,y,z and r) and
    an exponential decay factor alpha.
 2. Since the basis sets are specific for an atom TYPE, the individual functions occur on
    all atoms of that type.
 3. The word 'Core' in the left margin signals that it is a Core Function (CF) : not a
    degree of freedom in the valence set, but only used to ensure orthogonalization of
    the other valence basis functions on the frozen Core Orbitals.


 (power of) X  Y  Z  R     Alpha  on Atom
            ==========     =====     ==========

 O                                    1
                                  ---------------------------------------------------------------------------
            0  0  0  0    14.800      1
            0  0  0  0     8.750      2
            0  0  0  0     6.650      3
            0  0  0  1     7.100      4
            0  0  0  1     3.200      5
            0  0  0  1     2.050      6
            0  0  0  1     1.500      7
            0  0  0  1     0.750      8
            1  0  0  0     5.700      9
            0  1  0  0     5.700     10
            0  0  1  0     5.700     11
            1  0  0  0     3.050     12
            0  1  0  0     3.050     13
            0  0  1  0     3.050     14
            1  0  0  0     1.650     15
            0  1  0  0     1.650     16
            0  0  1  0     1.650     17
            1  0  0  0     1.000     18
            0  1  0  0     1.000     19
            0  0  1  0     1.000     20
            2  0  0  0     2.500     21
            1  1  0  0     2.500     22
            1  0  1  0     2.500     23
            0  2  0  0     2.500     24
            0  1  1  0     2.500     25
            0  0  2  0     2.500     26
            2  0  0  0     1.500     27
            1  1  0  0     1.500     28
            1  0  1  0     1.500     29
            0  2  0  0     1.500     30
            0  1  1  0     1.500     31
            0  0  2  0     1.500     32
            3  0  0  0     4.000     33
            2  1  0  0     4.000     34
            2  0  1  0     4.000     35
            1  2  0  0     4.000     36
            1  1  1  0     4.000     37
            1  0  2  0     4.000     38
            0  3  0  0     4.000     39
            0  2  1  0     4.000     40
            0  1  2  0     4.000     41
            0  0  3  0     4.000     42
            3  0  0  0     2.000     43
            2  1  0  0     2.000     44
            2  0  1  0     2.000     45
            1  2  0  0     2.000     46
            1  1  1  0     2.000     47
            1  0  2  0     2.000     48
            0  3  0  0     2.000     49
            0  2  1  0     2.000     50
            0  1  2  0     2.000     51
            0  0  3  0     2.000     52
1
 ***************************************************************************************************



                                              ***********************
                                              *  T E C H N I C A L  *
                                              ***********************
  



 =============================================================
 P A R A L L E L I Z A T I O N  and  V E C T O R I Z A T I O N
 =============================================================
  
 Nr of parallel processes:                                1
 Maximum vector length in NumInt loops:                 128

 IO buffersize (Mb):                                     64.000000



 =====================
 S C F   U P D A T E S
 =====================
  
 Max. nr. of cycles:                               300
 Convergence criterion:                              0.0000000100
   secondary criterion:                              0.0000000100

 Mix parameter (when DIIS does not apply):           0.2000000000
 Special mix parameter for the first cycle:          1.0000000000
 Mixed ADIIS+DIIS will be used
    Max number of expansion vectors:                10
    Pure ADIIS when Max([F,P]) is above              0.1000000000
    Pure DIIS when Max([F,P]) is below               0.0010000000
 Automatic ElectronSmearing (in case of problematic SCF convergence) disabled



 =================
 P R E C I S I O N  ***  (General: NumInt, NeglectFunctionTails, ...)  ***
 =================
  

 NumInt:           Target precision:                12.0000000000
 -------           Initial precision:               10.0000000000
                   Min. precision (optimization):   10.0000000000

 Neglect Functions:          Basis functions:        0.1000000000E-13
 ------------------          Fit functions:          0.1000000000E-13



 ===========================
 L I N E A R   S C A L I N G
 ===========================
  

 Cut-off radii density fit:                        0.1000000000E-97
 Overlap cut-off criterion AO matrix elements:     0.1000000000E-97
 Cut-offs for Coulomb potential and fitted density:0.1000000000E-97
 Cut-off criterion for Coulomb multipole terms:    0.1000000000E-97
 Progressive Convergence parameter:                 0.000000000    
1
 ***************************************************************************************************



                                            ***************************
                                            *  C O M P U T A T I O N  *
                                            ***************************
  

 Number of elements of the density matrix on this node (used, total):      1378      1378



 ===========================================
 Numerical Integration : Fuzzy Cells (Becke)
 ===========================================
  
 Becke grid quality: VERYGOOD       
  
 Lebedev angular grid order:             min:  13 max:  41
 Nr. of radial points:                   min:  81 max:  81

 Total nr. of points:         81
 Nr. of blocks:                1
 Block length:                81
 Nr. of dummy points:          0


 Test of Precision of the Numerical Integration Grid
 ===================================================

 Integral of the Total Core Density:                   0.00000000000000



 ========================
 Density Fitting (zlmFit)
 ========================
  
 ZlmFit Fit Quality: VERYGOOD       
  
 Max L-expansion:                        min:   0 max:   0
 Nr. of radial interpolation points:     min: 200 max: 200



 ======================
 RI Hartree-Fock Scheme
 ======================
  
 Fit Set Quality     : NORMAL
 Integration Quality : NORMAL
 Threshold Quality   : NORMAL
 Response Quality    : DEFAULT
 Is Range Separated  :  F
 
 RIHartreeFock Dependency: number of modified vectors:           0



 =====
 S C F  ***  ScaSCF  ***
 =====
  

 CYCLE    1
 SCF Error: norm([F,P])=      0.000000000000, max([F,P])=      0.000000000000
 orbitals (Q,E):
 ---------------
 S :1...8            ( 2.00   -32.0000)  ( 2.00    -7.9983)  ( 0.00    -3.5553)  ( 0.00    -1.9891)
                     ( 0.00    -1.2509)  ( 0.00     4.1281)  ( 0.00    41.4365)  ( 0.00   315.2313)
 P :1...4            ( 4.00    -7.9737)  ( 0.00    -3.5107)  ( 0.00    -1.8853)  ( 0.00     3.2175)
 D :1...2            ( 0.00    -3.5495)  ( 0.00    -1.9916)
 F :1...2            ( 0.00    -2.0000)  ( 0.00     1.0602)

 CYCLE    2
  SDIIS (wt  0.000):  1.0000  0.0000
 A-DIIS (wt  1.000):  0.0000  1.0000
  DIIS coefficients:  0.0000  1.0000
 SCF Error: norm([F,P])=      9.911328776769, max([F,P])=      4.131106195186
 orbitals (Q,E):
 ---------------
 S :1...3            ( 2.00   -16.5635)  ( 2.00    -0.1721)  ( 0.00     0.1244)
 P :1...2            ( 4.00     0.2343)  ( 0.00     0.8114)
 D :1...1            ( 0.00     0.8089)
 F :1...1            ( 0.00     1.7040)

 CYCLE    3
  SDIIS (wt  0.000):  0.1448  0.8552
 A-DIIS (wt  1.000):  0.2554  0.7446
  DIIS coefficients:  0.2554  0.7446
 SCF Error: norm([F,P])=      2.974846770227, max([F,P])=      2.329900732670
 orbitals (Q,E):
 ---------------
 S :1...3            ( 2.00   -22.1253)  ( 2.00    -2.0963)  ( 0.00    -0.0849)
 P :1...2            ( 4.00    -1.1157)  ( 0.00     0.0192)
 D :1...1            ( 0.00     0.3674)
 F :1...1            ( 0.00     1.2136)

 CYCLE    4
  SDIIS (wt  0.000): -0.0393  0.2197  0.8195
 A-DIIS (wt  1.000):  0.0000  0.0000  1.0000
  DIIS coefficients:  0.0000  0.0000  1.0000
 SCF Error: norm([F,P])=      1.332298582135, max([F,P])=      0.571225482972
 orbitals (Q,E):
 ---------------
 S :1...3            ( 2.00   -19.8645)  ( 2.00    -0.9804)  ( 0.00     0.0998)
 P :1...2            ( 4.00    -0.1324)  ( 0.00     0.3881)
 D :1...1            ( 0.00     0.7572)
 F :1...1            ( 0.00     1.6486)

 CYCLE    5
  SDIIS (wt  0.000): -0.0002 -0.0685  0.3124  0.7563
 A-DIIS (wt  1.000):  0.0000  0.0000  0.0957  0.9043
  DIIS coefficients:  0.0000  0.0000  0.0957  0.9043
 SCF Error: norm([F,P])=      0.732525386674, max([F,P])=      0.344793911999
 orbitals (Q,E):
 ---------------
 S :1...3            ( 2.00   -21.2510)  ( 2.00    -1.4899)  ( 0.00     0.0762)
 P :1...2            ( 4.00    -0.5824)  ( 0.00     0.2950)
 D :1...1            ( 0.00     0.6578)
 F :1...1            ( 0.00     1.5413)

 CYCLE    6
  SDIIS (wt  0.000): -0.0026 -0.0042 -0.0931  0.2182  0.8816
 A-DIIS (wt  1.000):  0.0000  0.0000  0.0000  0.0000  1.0000
  DIIS coefficients:  0.0000  0.0000  0.0000  0.0000  1.0000
 SCF Error: norm([F,P])=      0.324772089358, max([F,P])=      0.140825944853
 orbitals (Q,E):
 ---------------
 S :1...3            ( 2.00   -20.5891)  ( 2.00    -1.2334)  ( 0.00     0.0920)
 P :1...2            ( 4.00    -0.3552)  ( 0.00     0.3465)
 D :1...1            ( 0.00     0.7165)
 F :1...1            ( 0.00     1.6050)

 CYCLE    7
  SDIIS (wt  0.277):  0.0001  0.0012 -0.0163 -0.0725  0.3023  0.7852
 A-DIIS (wt  0.723):  0.0000  0.0000  0.0000  0.0000  0.0339  0.9661
  DIIS coefficients:  0.0000  0.0003 -0.0045 -0.0201  0.1083  0.9160
 SCF Error: norm([F,P])=      0.162189531356, max([F,P])=      0.072573033331
 orbitals (Q,E):
 ---------------
 S :1...3            ( 2.00   -20.8937)  ( 2.00    -1.3421)  ( 0.00     0.0872)
 P :1...2            ( 4.00    -0.4531)  ( 0.00     0.3276)
 D :1...1            ( 0.00     0.6956)
 F :1...1            ( 0.00     1.5827)

 CYCLE    8
  SDIIS (wt  0.754):  0.0000  0.0002  0.0032  0.0028 -0.1404  0.0959  1.0383
 A-DIIS (wt  0.246):  0.0000  0.0000  0.0000  0.0000  0.0000  0.0000  1.0000
  DIIS coefficients:  0.0000  0.0001  0.0024  0.0021 -0.1058  0.0723  1.0289
 SCF Error: norm([F,P])=      0.056986681292, max([F,P])=      0.025392013072
 orbitals (Q,E):
 ---------------
 S :1...3            ( 2.00   -20.8051)  ( 2.00    -1.3090)  ( 0.00     0.0889)
 P :1...2            ( 4.00    -0.4236)  ( 0.00     0.3335)
 D :1...1            ( 0.00     0.7025)
 F :1...1            ( 0.00     1.5901)

 CYCLE    9
  SDIIS (wt  0.979):  0.0000  0.0000 -0.0002  0.0022  0.0044 -0.0496 -0.0074  1.0506
 A-DIIS (wt  0.021):  0.0000  0.0000  0.0000  0.0000  0.0000  0.0000  0.0000  1.0000
  DIIS coefficients:  0.0000  0.0000 -0.0002  0.0021  0.0043 -0.0486 -0.0072  1.0495
 SCF Error: norm([F,P])=      0.006894648626, max([F,P])=      0.003054693137
 orbitals (Q,E):
 ---------------
 S :1...3            ( 2.00   -20.8150)  ( 2.00    -1.3125)  ( 0.00     0.0887)
 P :1...2            ( 4.00    -0.4268)  ( 0.00     0.3330)
 D :1...1            ( 0.00     0.7019)
 F :1...1            ( 0.00     1.5894)

 CYCLE   10
  SDIIS (wt  1.000): -0.0000  0.0000  0.0000 -0.0003 -0.0012  0.0079  0.0041 -0.1606  1.1501
  DIIS coefficients: -0.0000  0.0000  0.0000 -0.0003 -0.0012  0.0079  0.0041 -0.1606  1.1501
 SCF Error: norm([F,P])=      0.000100727291, max([F,P])=      0.000047917361
 orbitals (Q,E):
 ---------------
 S :1...3            ( 2.00   -20.8149)  ( 2.00    -1.3125)  ( 0.00     0.0888)
 P :1...2            ( 4.00    -0.4268)  ( 0.00     0.3330)
 D :1...1            ( 0.00     0.7019)
 F :1...1            ( 0.00     1.5894)

 CYCLE   11
  SDIIS (wt  1.000):  0.0000  0.0000  0.0000 -0.0000 -0.0001  0.0002  0.0010 -0.0880  1.0870
  DIIS coefficients:  0.0000  0.0000  0.0000 -0.0000 -0.0001  0.0002  0.0010 -0.0880  1.0870
 SCF Error: norm([F,P])=      0.000002737497, max([F,P])=      0.000001459277
 orbitals (Q,E):
 ---------------
 S :1...3            ( 2.00   -20.8149)  ( 2.00    -1.3125)  ( 0.00     0.0888)
 P :1...2            ( 4.00    -0.4268)  ( 0.00     0.3330)
 D :1...1            ( 0.00     0.7019)
 F :1...1            ( 0.00     1.5894)

 CYCLE   12
  SDIIS (wt  1.000): -0.0000  0.0000  0.0000  0.0000  0.0014 -0.0492  1.0478
  DIIS coefficients: -0.0000  0.0000  0.0000  0.0000  0.0014 -0.0492  1.0478
 SCF Error: norm([F,P])=      0.000000082878, max([F,P])=      0.000000044534
 orbitals (Q,E):
 ---------------
 S :1...3            ( 2.00   -20.8149)  ( 2.00    -1.3125)  ( 0.00     0.0888)
 P :1...2            ( 4.00    -0.4268)  ( 0.00     0.3330)
 D :1...1            ( 0.00     0.7019)
 F :1...1            ( 0.00     1.5894)

 CYCLE   13
  SDIIS (wt  1.000): -0.0000 -0.0000  0.0019 -0.0558  1.0539
  DIIS coefficients: -0.0000 -0.0000  0.0019 -0.0558  1.0539
 SCF Error: norm([F,P])=      0.000000000437, max([F,P])=      0.000000000213
 orbitals (Q,E):
 ---------------
 S :1...3            ( 2.00   -20.8149)  ( 2.00    -1.3125)  ( 0.00     0.0888)
 P :1...2            ( 4.00    -0.4268)  ( 0.00     0.3330)
 D :1...1            ( 0.00     0.7019)
 F :1...1            ( 0.00     1.5894)

 SCF CONVERGED

 CYCLE   14
1
 ***************************************************************************************************



                                                *******************
                                                *  R E S U L T S  *
                                                *******************
  
  
 Hartree-Fock exchange energy:   -7.57079885599045     
 *** Setting up for NEW gradients in Focky
 *** Using FIT density in Focky

 Orbital Energies, per Irrep and Spin:
 ======================================
                        Occup              E (au)              E (eV)       Diff (eV) with prev. cycle
                        -----      --------------------        ------       --------------------------
 S
               1        2.000     -0.20814880833710E+02      -566.402              -2.00E-10
               2        2.000     -0.13124676844490E+01       -35.714              -8.80E-11
               3        0.000      0.88750593703814E-01         2.415
               4        0.000      0.63013377250334E+00        17.147
               5        0.000      0.28843591990714E+01        78.487
               6        0.000      0.12655161294138E+02       344.364
               7        0.000      0.54277382334345E+02      1476.963
               8        0.000      0.33266225897052E+03      9052.201
 P
               1        4.000     -0.42678486567209E+00       -11.613              -9.45E-11
               2        0.000      0.33297026489998E+00         9.061
               3        0.000      0.20403706340507E+01        55.521
               4        0.000      0.13099230744491E+02       356.448
 D
               1        0.000      0.70186650862789E+00        19.099
               2        0.000      0.28017048554243E+01        76.238
 F
               1        0.000      0.15894017589556E+01        43.250
               2        0.000      0.75958688166280E+01       206.694


 Partially Occupied:
               1 P                -0.42678486567209E+00
  
 HOMO :        2 S                -0.13124676844490E+01
 LUMO :        3 S                 0.88750593703814E-01
  


 Orbital Energies, all Irreps
 ========================================

 Irrep        no.  (spin)   Occup              E (au)                E (eV)
 ---------------------------------------------------------------------------
 S             1             2.00       -0.20814880833710E+02      -566.4017
 S             2             2.00       -0.13124676844490E+01       -35.7141
 P             1             4.00       -0.42678486567209E+00       -11.6134
 S             3             0.00        0.88750593703814E-01         2.4150
 P             2             0.00        0.33297026489998E+00         9.0606
 S             4             0.00        0.63013377250334E+00        17.1468
 D             1             0.00        0.70186650862789E+00        19.0988
 F             1             0.00        0.15894017589556E+01        43.2498
 P             3             0.00        0.20403706340507E+01        55.5213
 D             2             0.00        0.28017048554243E+01        76.2383
 S             5             0.00        0.28843591990714E+01        78.4874
 F             2             0.00        0.75958688166280E+01       206.6941
 S             6             0.00        0.12655161294138E+02       344.3645
 P             4             0.00        0.13099230744491E+02       356.4482
 S             7             0.00        0.54277382334345E+02      1476.9627
 S             8             0.00        0.33266225897052E+03      9052.2006


 All Electron Calculation, thus no Orbital Energies of the Core Orbitals are calculated



 =======================================
 M U L L I K E N   P O P U L A T I O N S
 =======================================
  
 The survey below gives for each atom:
 a) the total charge (Z minus electrons)
 b) the net spin polarization (nr of electrons spin-A minus spin-B)
 c) for each spin the atomic electron valence density (integrated) per L-value.

 Atom              Charge    Spin density          S         P         D         F
 ----              ------    ------------       ------    ------    ------    ------
 1 O               0.0000                       4.0000    4.0000    0.0000    0.0000

 Populations of individual BAS functions
 ----------------------------------------
 1 O            0.0347  0.4819  1.6785 -0.2521  0.7431  1.1511  0.1623  0.0005  0.0377  0.0377
                0.0377  0.4366  0.4366  0.4366  0.6715  0.6715  0.6715  0.1875  0.1875  0.1875
                0.0000  0.0000  0.0000  0.0000  0.0000  0.0000  0.0000  0.0000  0.0000  0.0000
                0.0000  0.0000  0.0000  0.0000  0.0000  0.0000  0.0000  0.0000  0.0000  0.0000
                0.0000  0.0000  0.0000  0.0000  0.0000  0.0000  0.0000  0.0000  0.0000  0.0000
                0.0000  0.0000

 Gross Charges per Atom (Z minus electrons)
 ==========================================
             0.0000
 Net Total:  0.00000000



 =======================================================================
 Electrostatic potential at the Nuclei due to electrons and other nuclei
 =======================================================================
  
         Atom                  Potential
         ----                  ---------
     1)   O                  22.11618799
 
 
 ========================
 No memory problems found
 ========================
 
 Maximum number of active allocate calls:         454
 
 *******************************************************************************

                             A D F   E X I T
 NORMAL TERMINATION



 =================
 Timing Statistics
 =================
  
 Total Used :                     CPU=        0.75      System=        0.07     Elapsed=        1.50

 Calls  Section                     ( Mean, Percentage )
 ---------------------------------------------------------------------------------------------------
     3  ><      ................      0.00    1.33             0.00    0.03             0.01    1.02
     1  INIT    ................      0.03    4.13             0.01   22.58             0.59   39.47
     1  GEOMET  ................      0.03    3.37             0.03   50.25             0.10    6.39
     1  INPUTA  ................      0.01    1.40             0.00    0.00             0.01    0.81
     1  MAINSY  ................      0.01    1.42             0.00    3.41             0.02    1.50
     1  SYMFIT  ................      0.00    0.14             0.00    0.00             0.00    0.13
     1  CORORT  ................      0.00    0.10             0.00    0.00             0.00    0.05
     1  SYMORB  ................      0.00    0.11             0.00    0.00             0.00    0.05
     1  FITINT  ................      0.01    1.78             0.00    0.00             0.02    1.14
     1  CLSMAT  ................      0.00    0.14             0.00    0.00             0.00    0.10
     1  ORTHON  ................      0.00    0.55             0.00    0.90             0.01    0.65
     1  GENPT   ................      0.03    3.50             0.00    0.00             0.03    2.04
     1  PTBAS   ................      0.00    0.46             0.00    0.00             0.01    0.54
    14  FOCKY   ................      0.04   71.77             0.00   21.59             0.04   40.00
    14  FOCKTR  ................      0.00    1.04             0.00    0.04             0.00    0.54
    14  SDIIS   ................      0.00    3.20             0.00    0.59             0.00    2.26
     1  COREPS  ................      0.02    3.06             0.00    0.49             0.03    1.71
     1  POPAN   ................      0.01    0.80             0.00    0.11             0.01    0.51
     1  DEBYE   ................      0.00    0.19             0.00    0.00             0.00    0.19
     1  EXIT PROCEDURE .........      0.01    1.50             0.00    0.00             0.01    0.89


 Currently Open Files (EXIT00)
 ====================

 Unit    Access Format  Status   Type       Ident (file)
 -------------------------------------------------------
   3      SEQ    FORM   TRANSP  NORMAL      LOGFILE
                                          ( logfile )


 Buffered I/O statistics
 =======================
 Memory available:                     67108864
 Number of records fitting in memory:     16131
 Input :   0.1% of                        46124  *4k bytes
 Output:   8.5% of                         2426  *4k bytes
 Records from serial files evicted:           0
                    others evicted:           0
 Hash table lookups:      93156 with          0 conflicts (  0.00%)

 ***************************************************************************************************
 (LOGFILE)
 <Mar29-2019> <09:18:53>  ADF 2018  RunTime: Mar29-2019 09:18:53  Nodes: 1  Procs: 1
 <Mar29-2019> <09:18:53>  Oxygen (QZ, all electron, 8S 4P 2D 2F)
 <Mar29-2019> <09:18:53>  RunType   : CREATE
 <Mar29-2019> <09:18:53>  Net Charge: 0 (Nuclei minus Electrons)
 <Mar29-2019> <09:18:53>  Symmetry  : ATOM
  Coordinates
    Atom         X           Y           Z   (Angstrom)
    1.O         0.000000    0.000000    0.000000
 <Mar29-2019> <09:18:53>  >>>> CORORT
 <Mar29-2019> <09:18:53>  >>>> FITINT
 <Mar29-2019> <09:18:53>  >>>> CLSMAT
 <Mar29-2019> <09:18:53>  >>>> ORTHON
 <Mar29-2019> <09:18:53>  >>>> GENPT
 <Mar29-2019> <09:18:53>  Block Length=  81
 <Mar29-2019> <09:18:53>  >>>> PTBAS
 <Mar29-2019> <09:18:53>  >>>> CYCLE
 <Mar29-2019> <09:18:54>  CalcFitR12Fit
 <Mar29-2019> <09:18:54>  CalcFitCoeff
 <Mar29-2019> <09:18:54>              |Error|         MaxErr       Wt(A-DIIS)
 <Mar29-2019> <09:18:54>      1      0.00000000      0.00000000
 <Mar29-2019> <09:18:54>      2      9.91132878      4.13110620    100.0
 <Mar29-2019> <09:18:54>      3      2.97484677      2.32990073    100.0
 <Mar29-2019> <09:18:54>      4      1.33229858      0.57122548    100.0
 <Mar29-2019> <09:18:54>      5      0.73252539      0.34479391    100.0
 <Mar29-2019> <09:18:54>      6      0.32477209      0.14082594    100.0
 <Mar29-2019> <09:18:54>      7      0.16218953      0.07257303     72.3
 <Mar29-2019> <09:18:54>      8      0.05698668      0.02539201     24.6
 <Mar29-2019> <09:18:54>      9      0.00689465      0.00305469      2.1
 <Mar29-2019> <09:18:54>     10      0.00010073      0.00004792      0.0
 <Mar29-2019> <09:18:54>     11      0.00000274      0.00000146      0.0
 <Mar29-2019> <09:18:54>     12      0.00000008      0.00000004      0.0
 <Mar29-2019> <09:18:54>     13      0.00000000      0.00000000      0.0
 <Mar29-2019> <09:18:54>  SCF converged
 <Mar29-2019> <09:18:54>     14      0.00000000      0.00000000      0.0
 <Mar29-2019> <09:18:54>  >>>> POPAN
 <Mar29-2019> <09:18:54>  >>>> DEBYE
 <Mar29-2019> <09:18:54>  NORMAL TERMINATION
 <Mar29-2019> <09:18:54>  END


 Parallel Execution: Process Information
 ==============================================================================
 Rank   Node Name                              NodeID   MyNodeRank  NodeMaster
    0   vladimir-Kubuntu-16                       0          0          0
    1   vladimir-Kubuntu-16                       0          1         -1
    2   vladimir-Kubuntu-16                       0          2         -1
    3   vladimir-Kubuntu-16                       0          3         -1
 ==============================================================================


May use up to 7611MB of RAM as shared memory on node 0
 
Title O3

ATOMS
 O         0.000000000000      0.000000000000      0.000000000000
 O         0.000000000000      0.000000000000      1.268813890000
 O         1.129329809229      0.000000000000     -0.578362230305
END

CHARGE 0 0

XC
  HartreeFock
END

EPRINT
  SFO NOEIG NOOVL NOORBPOP
  SCF NOPOP
END

NOPRINT BAS FUNCTIONS

TOTALENERGY
NOTOTEN

Fragments
O t21.O
End

 *******************************************************************************
 *                                                                             *
 *  -------------------------------------                                      *
 *   Amsterdam Density Functional  (ADF)         2018                          *
 *  -------------------------------------                                      *
 *                                               r70630 2018-11-24             *
 *                                                                             *
 *                                                                             *
 *                              =================                              *
 *                              |               |                              *
 *                              |     A D F     |                              *
 *                              |               |                              *
 *                              =================                              *
 *                                                                             *
 *                                                                             *
 *   Online information and documentation:  https://www.scm.com/support/       *
 *   E-mail:  support@scm.com   info@scm.com                                   *
 *                                                                             *
 *   Scientific publications using ADF results must be properly referenced     *
 *   See the User Manuals (or the web site) for recommended citations          *
 *   The terms and conditions of the End User License Agreement apply to       *
 *   the use of ADF, https://www.scm.com/license-terms/                        *
 *                                                                             *
 **********************  x86_64_linux_intel / intelmpi  ************************
 
 Licensed to: Mr. Vladimir Konjkov / Florida Institute of Technology / Melbourne / Florida / USA
 SCM User ID: u21173
  
 ADF 2018  RunTime: Mar29-2019 09:18:54  Nodes: 1  Procs: 4

 Temporary files are created in /tmp/kid_0.660501038


Communication costs MPI_COMM_WORLD:      0.255 usec per message,   0.0032 usec per 8-byte item
Communication costs for intra-node:      0.255 usec per message,   0.0033 usec per 8-byte item

 O3



 ===========================
 A T T A C H E D   F I L E S
 ===========================
  



 ===============================
 M O D E L   P A R A M E T E R S
 ===============================
  
 DENSITY FUNCTIONAL POTENTIAL (scf)
    Hybrid:                            HARTREEFOCK                             == Not Default ==

 SPIN  (restricted / unrestr.)
    Molecule:                          Restricted                               
    Fragments:                         Restricted                               

 OTHER ASPECTS
    Relativistic Corrections:          ---                                      

    Nuclear Charge Density Model:      Point Charge Nuclei                      
    Core Treatment:                    Frozen Orbital(s)                        

    Hyperfine or Zeeman Interaction:   ---                                      


 Fragment File(s)
 ----------------
 O:
         file : t21.O
         jobid: ADF 2018  RunTime: Mar29-2019 09:18:53  Nodes: 1  Procs: 1
         title: Oxygen (QZ, all electron, 8S 4P 2D 2F)



                                        ************************************
                                        *  R U N   T Y P E : SINGLE POINT  *
                                        ************************************
  



 ===============
 G E O M E T R Y  ***  Planar Molecule  ***
 ===============
  

 ATOMS
 =====                            X Y Z                    CHARGE
                                (Angstrom)             Nucl     +Core       At.Mass
                       --------------------------    ----------------       -------
    1  O               0.0000    0.0000    0.0000      8.00      8.00       15.9949
    2  O              -1.0825    0.0000    0.6618      8.00      8.00       15.9949
    3  O               1.0825    0.0000    0.6618      8.00      8.00       15.9949


 FRAGMENTS
 =========                                     Atoms in this Fragment     Cart. coord.s (Angstrom)
                                               -------------------------------------------------------
    1  O                                                 1  O            0.0000    0.0000    0.0000
    2  O                                                 2  O           -1.0825    0.0000    0.6618
    3  O                                                 3  O            1.0825    0.0000    0.6618


 Interatomic Distance Matrix (Angstrom)
 --------------------------------------

   1)     0.000
   2)     1.269   0.000
   3)     1.269   2.165   0.000

 Min. Distance =    1.2688
 Max. Distance =    2.1651



 =====================================
 S Y M M E T R Y ,   E L E C T R O N S
 =====================================
  
 Symmetry: C(2V)

 Irreducible Representations, including subspecies
 -------------------------------------------------
 A1
 A2
 B1
 B2


 Configuration of Valence Electrons
 ==================================
 ( determined in the SCF procedure )

 Total:   24

 Net Charge: 0 (Nuclei minus Electrons)

 Aufbau principle for MO occupations will be applied through SCF cycle no.     150
 Thereafter, the program will assign electrons to MOs that are spatially
 similar to the occupied MOs in a "reference" cycle ("KeepOrbitals").
 The reference cycle is always the PREVIOUS cycle: it will evolve with
 the SCF procedure.



 =======
 S F O s  ***  (Symmetrized Fragment Orbitals)  ***
 =======
  
 SFOs are linear combinations of (valence) Fragment Orbitals (FOs), such that the SFOs transform as the
 irreducible representations of the (molecular) symmetry group. Each SFO is therefore characterized by
 an irrep of the molecule and by a few (or only one) generating FOs.
 The SFOs constitute a symmetry-adapted basis for the Fock matrix. The MO eigenvector coefficients in
 this basis provide a direct interpretation of the MOs in terms of Frontier Orbital Theory.

 The SFOs are combined with auxiliary Core Functions (CFs) to ensure orthogonalization on the (frozen)
 Core Orbitals (COs). The Core-orthogonalized SFOs (CSFOs) constitute the true Fock basis.

 The FOs, and hence also the (C)SFOs are combinations of the elementary basis functions (BAS). The basis
 functions that participate in the description of the SFOs depend on the irrep. The indices of the
 involved functions are printed below for each irrep.
 (The complete list of primitive basis functions is printed in another section)

 Total nr. of (C)SFOs (summation over all irreps) :   132

 NOTE: a (C)SFO that is defined as a combination of more than one FO is usually NOT normalized.



                                       === A1 ===
 Nr. of SFOs :   50
 Cartesian basis functions that participate in this irrep (total number =    96) :
      1     2     3     4     5     6     7     8    11    14
     17    20    26    32    21    24    27    30    42    52
     35    40    45    50    53   105    54   106    55   107
     56   108    57   109    58   110    59   111    60   112
     63   115    66   118    69   121    72   124    61   113
     64   116    67   119    70   122    78   130    84   136
     75   127    81   133    73    76   125   128    79    82
    131   134    94   146   104   156    90   142   100   152
     87    92   139   144    97   102   149   154    85    88
    137   140    95    98   147   150

    SFO  (index         Fragment          Generating    Expansion in Fragment Orbitals
  indx  incl.CFs)   Occup   Orb.Energy   FragmentType  Coeff.   Orbital     on Fragment
 --------------------------------------------------------------------------------------
     1       1      2.000     -20.815 au  O             1.00      1 S               1
                        (    -566.402 eV)
     2       2      2.000      -1.312 au  O             1.00      2 S               1
                        (     -35.714 eV)
     3       3       --         0.089 au  O             1.00      3 S               1
                        (       2.415 eV)
     4       4       --         0.630 au  O             1.00      4 S               1
                        (      17.147 eV)
     5       5       --         2.884 au  O             1.00      5 S               1
                        (      78.487 eV)
     6       6       --        12.655 au  O             1.00      6 S               1
                        (     344.364 eV)
     7       7       --        54.277 au  O             1.00      7 S               1
                        (    1476.963 eV)
     8       8       --       332.662 au  O             1.00      8 S               1
                        (    9052.201 eV)
     9       9      1.333      -0.427 au  O             1.00      1 P:z             1
                        (     -11.613 eV)
    10      10       --         0.333 au  O             1.00      2 P:z             1
                        (       9.061 eV)
    11      11       --         2.040 au  O             1.00      3 P:z             1
                        (      55.521 eV)
    12      12       --        13.099 au  O             1.00      4 P:z             1
                        (     356.448 eV)
    13      13       --         0.702 au  O             1.00      1 D:z2            1
                        (      19.099 eV)
    14      14       --         2.802 au  O             1.00      2 D:z2            1
                        (      76.238 eV)
    15      15       --         0.702 au  O             1.00      1 D:x2-y2         1
                        (      19.099 eV)
    16      16       --         2.802 au  O             1.00      2 D:x2-y2         1
                        (      76.238 eV)
    17      17       --         1.589 au  O             1.00      1 F:z3            1
                        (      43.250 eV)
    18      18       --         7.596 au  O             1.00      2 F:z3            1
                        (     206.694 eV)
    19      19       --         1.589 au  O             1.00      1 F:z             1
                        (      43.250 eV)
    20      20       --         7.596 au  O             1.00      2 F:z             1
                        (     206.694 eV)
    21      21      2.000     -20.815 au  O             0.71      1 S               2
                        (    -566.402 eV)               0.71      1 S               3
    22      22      2.000      -1.312 au  O             0.71      2 S               2
                        (     -35.714 eV)               0.71      2 S               3
    23      23       --         0.089 au  O             0.71      3 S               2
                        (       2.415 eV)               0.71      3 S               3
    24      24       --         0.630 au  O             0.71      4 S               2
                        (      17.147 eV)               0.71      4 S               3
    25      25       --         2.884 au  O             0.71      5 S               2
                        (      78.487 eV)               0.71      5 S               3
    26      26       --        12.655 au  O             0.71      6 S               2
                        (     344.364 eV)               0.71      6 S               3
    27      27       --        54.277 au  O             0.71      7 S               2
                        (    1476.963 eV)               0.71      7 S               3
    28      28       --       332.662 au  O             0.71      8 S               2
                        (    9052.201 eV)               0.71      8 S               3
    29      29      1.333      -0.427 au  O             0.71      1 P:x             2
                        (     -11.613 eV)              -0.71      1 P:x             3
    30      30       --         0.333 au  O             0.71      2 P:x             2
                        (       9.061 eV)              -0.71      2 P:x             3
    31      31       --         2.040 au  O             0.71      3 P:x             2
                        (      55.521 eV)              -0.71      3 P:x             3
    32      32       --        13.099 au  O             0.71      4 P:x             2
                        (     356.448 eV)              -0.71      4 P:x             3
    33      33      1.333      -0.427 au  O             0.71      1 P:z             2
                        (     -11.613 eV)               0.71      1 P:z             3
    34      34       --         0.333 au  O             0.71      2 P:z             2
                        (       9.061 eV)               0.71      2 P:z             3
    35      35       --         2.040 au  O             0.71      3 P:z             2
                        (      55.521 eV)               0.71      3 P:z             3
    36      36       --        13.099 au  O             0.71      4 P:z             2
                        (     356.448 eV)               0.71      4 P:z             3
    37      37       --         0.702 au  O             0.71      1 D:z2            2
                        (      19.099 eV)               0.71      1 D:z2            3
    38      38       --         2.802 au  O             0.71      2 D:z2            2
                        (      76.238 eV)               0.71      2 D:z2            3
    39      39       --         0.702 au  O             0.71      1 D:x2-y2         2
                        (      19.099 eV)               0.71      1 D:x2-y2         3
    40      40       --         2.802 au  O             0.71      2 D:x2-y2         2
                        (      76.238 eV)               0.71      2 D:x2-y2         3
    41      41       --         0.702 au  O             0.71      1 D:xz            2
                        (      19.099 eV)              -0.71      1 D:xz            3
    42      42       --         2.802 au  O             0.71      2 D:xz            2
                        (      76.238 eV)              -0.71      2 D:xz            3
    43      43       --         1.589 au  O             0.71      1 F:z3            2
                        (      43.250 eV)               0.71      1 F:z3            3
    44      44       --         7.596 au  O             0.71      2 F:z3            2
                        (     206.694 eV)               0.71      2 F:z3            3
    45      45       --         1.589 au  O             0.71      1 F:z             2
                        (      43.250 eV)               0.71      1 F:z             3
    46      46       --         7.596 au  O             0.71      2 F:z             2
                        (     206.694 eV)               0.71      2 F:z             3
    47      47       --         1.589 au  O             0.71      1 F:z2x           2
                        (      43.250 eV)              -0.71      1 F:z2x           3
    48      48       --         7.596 au  O             0.71      2 F:z2x           2
                        (     206.694 eV)              -0.71      2 F:z2x           3
    49      49       --         1.589 au  O             0.71      1 F:x             2
                        (      43.250 eV)              -0.71      1 F:x             3
    50      50       --         7.596 au  O             0.71      2 F:x             2
                        (     206.694 eV)              -0.71      2 F:x             3



                                       === A2 ===
 Nr. of SFOs :   18
 Cartesian basis functions that participate in this irrep (total number =    36) :
     22    28    37    47    62   114    65   117    68   120
     71   123    77   129    83   135    74   126    80   132
     93   145   103   155    89   141    99   151    86    91
    138   143    96   101   148   153

    SFO  (index         Fragment          Generating    Expansion in Fragment Orbitals
  indx  incl.CFs)   Occup   Orb.Energy   FragmentType  Coeff.   Orbital     on Fragment
 --------------------------------------------------------------------------------------
     1       1       --         0.702 au  O             1.00      1 D:xy            1
                        (      19.099 eV)
     2       2       --         2.802 au  O             1.00      2 D:xy            1
                        (      76.238 eV)
     3       3       --         1.589 au  O             1.00      1 F:xyz           1
                        (      43.250 eV)
     4       4       --         7.596 au  O             1.00      2 F:xyz           1
                        (     206.694 eV)
     5       5      1.333      -0.427 au  O             0.71      1 P:y             2
                        (     -11.613 eV)              -0.71      1 P:y             3
     6       6       --         0.333 au  O             0.71      2 P:y             2
                        (       9.061 eV)              -0.71      2 P:y             3
     7       7       --         2.040 au  O             0.71      3 P:y             2
                        (      55.521 eV)              -0.71      3 P:y             3
     8       8       --        13.099 au  O             0.71      4 P:y             2
                        (     356.448 eV)              -0.71      4 P:y             3
     9       9       --         0.702 au  O             0.71      1 D:xy            2
                        (      19.099 eV)               0.71      1 D:xy            3
    10      10       --         2.802 au  O             0.71      2 D:xy            2
                        (      76.238 eV)               0.71      2 D:xy            3
    11      11       --         0.702 au  O             0.71      1 D:yz            2
                        (      19.099 eV)              -0.71      1 D:yz            3
    12      12       --         2.802 au  O             0.71      2 D:yz            2
                        (      76.238 eV)              -0.71      2 D:yz            3
    13      13       --         1.589 au  O             0.71      1 F:xyz           2
                        (      43.250 eV)               0.71      1 F:xyz           3
    14      14       --         7.596 au  O             0.71      2 F:xyz           2
                        (     206.694 eV)               0.71      2 F:xyz           3
    15      15       --         1.589 au  O             0.71      1 F:z2y           2
                        (      43.250 eV)              -0.71      1 F:z2y           3
    16      16       --         7.596 au  O             0.71      2 F:z2y           2
                        (     206.694 eV)              -0.71      2 F:z2y           3
    17      17       --         1.589 au  O             0.71      1 F:y             2
                        (      43.250 eV)              -0.71      1 F:y             3
    18      18       --         7.596 au  O             0.71      2 F:y             2
                        (     206.694 eV)              -0.71      2 F:y             3



                                       === B1 ===
 Nr. of SFOs :   40
 Cartesian basis functions that participate in this irrep (total number =    84) :
      9    12    15    18    23    29    38    48    33    36
     43    46    53   105    54   106    55   107    56   108
     57   109    58   110    59   111    60   112    63   115
     66   118    69   121    72   124    61   113    64   116
     67   119    70   122    78   130    84   136    75   127
     81   133    73    76   125   128    79    82   131   134
     94   146   104   156    90   142   100   152    87    92
    139   144    97   102   149   154    85    88   137   140
     95    98   147   150

    SFO  (index         Fragment          Generating    Expansion in Fragment Orbitals
  indx  incl.CFs)   Occup   Orb.Energy   FragmentType  Coeff.   Orbital     on Fragment
 --------------------------------------------------------------------------------------
     1       1      1.333      -0.427 au  O             1.00      1 P:x             1
                        (     -11.613 eV)
     2       2       --         0.333 au  O             1.00      2 P:x             1
                        (       9.061 eV)
     3       3       --         2.040 au  O             1.00      3 P:x             1
                        (      55.521 eV)
     4       4       --        13.099 au  O             1.00      4 P:x             1
                        (     356.448 eV)
     5       5       --         0.702 au  O             1.00      1 D:xz            1
                        (      19.099 eV)
     6       6       --         2.802 au  O             1.00      2 D:xz            1
                        (      76.238 eV)
     7       7       --         1.589 au  O             1.00      1 F:z2x           1
                        (      43.250 eV)
     8       8       --         7.596 au  O             1.00      2 F:z2x           1
                        (     206.694 eV)
     9       9       --         1.589 au  O             1.00      1 F:x             1
                        (      43.250 eV)
    10      10       --         7.596 au  O             1.00      2 F:x             1
                        (     206.694 eV)
    11      11      2.000     -20.815 au  O             0.71      1 S               2
                        (    -566.402 eV)              -0.71      1 S               3
    12      12      2.000      -1.312 au  O             0.71      2 S               2
                        (     -35.714 eV)              -0.71      2 S               3
    13      13       --         0.089 au  O             0.71      3 S               2
                        (       2.415 eV)              -0.71      3 S               3
    14      14       --         0.630 au  O             0.71      4 S               2
                        (      17.147 eV)              -0.71      4 S               3
    15      15       --         2.884 au  O             0.71      5 S               2
                        (      78.487 eV)              -0.71      5 S               3
    16      16       --        12.655 au  O             0.71      6 S               2
                        (     344.364 eV)              -0.71      6 S               3
    17      17       --        54.277 au  O             0.71      7 S               2
                        (    1476.963 eV)              -0.71      7 S               3
    18      18       --       332.662 au  O             0.71      8 S               2
                        (    9052.201 eV)              -0.71      8 S               3
    19      19      1.333      -0.427 au  O             0.71      1 P:x             2
                        (     -11.613 eV)               0.71      1 P:x             3
    20      20       --         0.333 au  O             0.71      2 P:x             2
                        (       9.061 eV)               0.71      2 P:x             3
    21      21       --         2.040 au  O             0.71      3 P:x             2
                        (      55.521 eV)               0.71      3 P:x             3
    22      22       --        13.099 au  O             0.71      4 P:x             2
                        (     356.448 eV)               0.71      4 P:x             3
    23      23      1.333      -0.427 au  O             0.71      1 P:z             2
                        (     -11.613 eV)              -0.71      1 P:z             3
    24      24       --         0.333 au  O             0.71      2 P:z             2
                        (       9.061 eV)              -0.71      2 P:z             3
    25      25       --         2.040 au  O             0.71      3 P:z             2
                        (      55.521 eV)              -0.71      3 P:z             3
    26      26       --        13.099 au  O             0.71      4 P:z             2
                        (     356.448 eV)              -0.71      4 P:z             3
    27      27       --         0.702 au  O             0.71      1 D:z2            2
                        (      19.099 eV)              -0.71      1 D:z2            3
    28      28       --         2.802 au  O             0.71      2 D:z2            2
                        (      76.238 eV)              -0.71      2 D:z2            3
    29      29       --         0.702 au  O             0.71      1 D:x2-y2         2
                        (      19.099 eV)              -0.71      1 D:x2-y2         3
    30      30       --         2.802 au  O             0.71      2 D:x2-y2         2
                        (      76.238 eV)              -0.71      2 D:x2-y2         3
    31      31       --         0.702 au  O             0.71      1 D:xz            2
                        (      19.099 eV)               0.71      1 D:xz            3
    32      32       --         2.802 au  O             0.71      2 D:xz            2
                        (      76.238 eV)               0.71      2 D:xz            3
    33      33       --         1.589 au  O             0.71      1 F:z3            2
                        (      43.250 eV)              -0.71      1 F:z3            3
    34      34       --         7.596 au  O             0.71      2 F:z3            2
                        (     206.694 eV)              -0.71      2 F:z3            3
    35      35       --         1.589 au  O             0.71      1 F:z             2
                        (      43.250 eV)              -0.71      1 F:z             3
    36      36       --         7.596 au  O             0.71      2 F:z             2
                        (     206.694 eV)              -0.71      2 F:z             3
    37      37       --         1.589 au  O             0.71      1 F:z2x           2
                        (      43.250 eV)               0.71      1 F:z2x           3
    38      38       --         7.596 au  O             0.71      2 F:z2x           2
                        (     206.694 eV)               0.71      2 F:z2x           3
    39      39       --         1.589 au  O             0.71      1 F:x             2
                        (      43.250 eV)               0.71      1 F:x             3
    40      40       --         7.596 au  O             0.71      2 F:x             2
                        (     206.694 eV)               0.71      2 F:x             3



                                       === B2 ===
 Nr. of SFOs :   24
 Cartesian basis functions that participate in this irrep (total number =    44) :
     10    13    16    19    25    31    41    51    34    39
     44    49    62   114    65   117    68   120    71   123
     77   129    83   135    74   126    80   132    93   145
    103   155    89   141    99   151    86    91   138   143
     96   101   148   153

    SFO  (index         Fragment          Generating    Expansion in Fragment Orbitals
  indx  incl.CFs)   Occup   Orb.Energy   FragmentType  Coeff.   Orbital     on Fragment
 --------------------------------------------------------------------------------------
     1       1      1.333      -0.427 au  O             1.00      1 P:y             1
                        (     -11.613 eV)
     2       2       --         0.333 au  O             1.00      2 P:y             1
                        (       9.061 eV)
     3       3       --         2.040 au  O             1.00      3 P:y             1
                        (      55.521 eV)
     4       4       --        13.099 au  O             1.00      4 P:y             1
                        (     356.448 eV)
     5       5       --         0.702 au  O             1.00      1 D:yz            1
                        (      19.099 eV)
     6       6       --         2.802 au  O             1.00      2 D:yz            1
                        (      76.238 eV)
     7       7       --         1.589 au  O             1.00      1 F:z2y           1
                        (      43.250 eV)
     8       8       --         7.596 au  O             1.00      2 F:z2y           1
                        (     206.694 eV)
     9       9       --         1.589 au  O             1.00      1 F:y             1
                        (      43.250 eV)
    10      10       --         7.596 au  O             1.00      2 F:y             1
                        (     206.694 eV)
    11      11      1.333      -0.427 au  O             0.71      1 P:y             2
                        (     -11.613 eV)               0.71      1 P:y             3
    12      12       --         0.333 au  O             0.71      2 P:y             2
                        (       9.061 eV)               0.71      2 P:y             3
    13      13       --         2.040 au  O             0.71      3 P:y             2
                        (      55.521 eV)               0.71      3 P:y             3
    14      14       --        13.099 au  O             0.71      4 P:y             2
                        (     356.448 eV)               0.71      4 P:y             3
    15      15       --         0.702 au  O             0.71      1 D:xy            2
                        (      19.099 eV)              -0.71      1 D:xy            3
    16      16       --         2.802 au  O             0.71      2 D:xy            2
                        (      76.238 eV)              -0.71      2 D:xy            3
    17      17       --         0.702 au  O             0.71      1 D:yz            2
                        (      19.099 eV)               0.71      1 D:yz            3
    18      18       --         2.802 au  O             0.71      2 D:yz            2
                        (      76.238 eV)               0.71      2 D:yz            3
    19      19       --         1.589 au  O             0.71      1 F:xyz           2
                        (      43.250 eV)              -0.71      1 F:xyz           3
    20      20       --         7.596 au  O             0.71      2 F:xyz           2
                        (     206.694 eV)              -0.71      2 F:xyz           3
    21      21       --         1.589 au  O             0.71      1 F:z2y           2
                        (      43.250 eV)               0.71      1 F:z2y           3
    22      22       --         7.596 au  O             0.71      2 F:z2y           2
                        (     206.694 eV)               0.71      2 F:z2y           3
    23      23       --         1.589 au  O             0.71      1 F:y             2
                        (      43.250 eV)               0.71      1 F:y             3
    24      24       --         7.596 au  O             0.71      2 F:y             2
                        (     206.694 eV)               0.71      2 F:y             3

 Total number of charge fitting functions (nprimf)       552
 Total number of Cartesian basis functions (naos)        156
 Total number of Cartesian core functions  (ncos)          0

1
 ***************************************************************************************************



                                              ***********************
                                              *  T E C H N I C A L  *
                                              ***********************
  



 =============================================================
 P A R A L L E L I Z A T I O N  and  V E C T O R I Z A T I O N
 =============================================================
  
 Nr of parallel processes:                                4
 Maximum vector length in NumInt loops:                 128

 IO buffersize (Mb):                                     64.000000



 =====================
 S C F   U P D A T E S
 =====================
  
 Max. nr. of cycles:                               300
 Convergence criterion:                              0.0000010000
   secondary criterion:                              0.0010000000

 Mix parameter (when DIIS does not apply):           0.2000000000
 Mixed ADIIS+DIIS will be used
    Max number of expansion vectors:                10
    Pure ADIIS when Max([F,P]) is above              0.1000000000
    Pure DIIS when Max([F,P]) is below               0.0010000000
 Automatic ElectronSmearing (in case of problematic SCF convergence) disabled



 =================
 P R E C I S I O N  ***  (General: NumInt, NeglectFunctionTails, ...)  ***
 =================
  

 NumInt:           Target precision:                 4.0000000000
 -------           Initial precision:                4.0000000000
                   Min. precision (optimization):    4.0000000000

 Neglect Functions:          Basis functions:        0.1000000000E-05
 ------------------          Fit functions:          0.1000000000E-05



 ===========================
 L I N E A R   S C A L I N G
 ===========================
  

 Cut-off radii density fit:                        0.1000000000E-07
 Overlap cut-off criterion AO matrix elements:     0.1000000000E-05
 Cut-offs for Coulomb potential and fitted density:0.1000000000E-07
 Cut-off criterion for Coulomb multipole terms:    0.1000000000E-07
 Progressive Convergence parameter:                 0.000000000    
1
 ***************************************************************************************************



                                            ***************************
                                            *  C O M P U T A T I O N  *
                                            ***************************
  

 Number of elements of the density matrix on this node (used, total):      4082     12246



 ===========================================
 Numerical Integration : Fuzzy Cells (Becke)
 ===========================================
  
 Becke grid quality: NORMAL         
  
 Lebedev angular grid order:             min:  11 max:  23
 Nr. of radial points:                   min:  58 max:  58

 Total nr. of points:       6648
 Nr. of blocks:               52
 Block length:               128
 Nr. of dummy points:          8


 Test of Precision of the Numerical Integration Grid
 ===================================================

 Integral of the Total Core Density:                   0.00000000000000



 ========================
 Density Fitting (zlmFit)
 ========================
  
 ZlmFit Fit Quality: NORMAL         
  
 Max L-expansion:                        min:   7 max:   7
 Nr. of radial interpolation points:     min:  60 max:  60



 ======================
 RI Hartree-Fock Scheme
 ======================
  
 Fit Set Quality     : NORMAL
 Integration Quality : NORMAL
 Threshold Quality   : NORMAL
 Response Quality    : DEFAULT
 Is Range Separated  :  F
 
 RIHartreeFock Dependency: number of modified vectors:           4



 =====
 S C F  ***  ScaSCF  ***
 =====
  
 Initial density matrix is calculated as sum of fragments

 CYCLE    1
 SCF Error: norm([F,P])=      3.728724053411, max([F,P])=      1.759364299149
 orbitals (Q,E):
 ---------------
 A1 :1...16          ( 2.00   -20.8876)  ( 2.00   -20.8531)  ( 2.00    -2.0440)  ( 2.00    -1.0796)
                     ( 2.00    -0.7414)  ( 2.00    -0.3841)  ( 0.00     0.0771)  ( 0.00     0.0918)
                     ( 0.00     0.1362)  ( 0.00     0.3360)  ( 0.00     0.3803)  ( 0.00     0.3882)
                     ( 0.00     0.5795)  ( 0.00     0.6422)  ( 0.00     0.9089)  ( 0.00     0.9824)
 A2 :1...11          ( 2.00    -0.4605)  ( 0.00     0.3511)  ( 0.00     0.7340)  ( 0.00     1.0053)
                     ( 0.00     1.3402)  ( 0.00     1.6042)  ( 0.00     1.8050)  ( 0.00     2.1124)
                     ( 0.00     2.3658)  ( 0.00     3.0730)  ( 0.00     3.5239)
 B1 :1...14          ( 2.00   -20.8533)  ( 2.00    -1.5804)  ( 2.00    -0.7593)  ( 2.00    -0.4230)
                     ( 0.00     0.0850)  ( 0.00     0.2293)  ( 0.00     0.3448)  ( 0.00     0.3842)
                     ( 0.00     0.4838)  ( 0.00     0.7583)  ( 0.00     0.9563)  ( 0.00     1.2049)
                     ( 0.00     1.3488)  ( 0.00     1.3850)
 B2 :1...11          ( 2.00    -0.7459)  ( 0.00    -0.2251)  ( 0.00     0.2844)  ( 0.00     0.3902)
                     ( 0.00     0.6251)  ( 0.00     0.9474)  ( 0.00     1.2087)  ( 0.00     1.4432)
                     ( 0.00     1.7026)  ( 0.00     1.8321)  ( 0.00     1.9132)

 CYCLE    2
   MIX coefficients:  0.8000  0.2000
 SCF Error: norm([F,P])=      0.907504338171, max([F,P])=      0.306737501945
 orbitals (Q,E):
 ---------------
 A1 :1...7           ( 2.00   -20.9986)  ( 2.00   -20.8026)  ( 2.00    -2.0168)  ( 2.00    -1.0932)
                     ( 2.00    -0.7770)  ( 2.00    -0.4234)  ( 0.00     0.0818)
 A2 :1...2           ( 2.00    -0.4653)  ( 0.00     0.3537)
 B1 :1...5           ( 2.00   -20.8027)  ( 2.00    -1.5625)  ( 2.00    -0.7755)  ( 2.00    -0.4440)
                     ( 0.00     0.0869)
 B2 :1...2           ( 2.00    -0.7774)  ( 0.00    -0.2084)

 CYCLE    3
  SDIIS (wt  0.000): -0.0076 -1.2148  2.2223
 A-DIIS (wt  1.000):  0.0000  0.0000  1.0000
  DIIS coefficients:  0.0000  0.0000  1.0000
 SCF Error: norm([F,P])=      0.531551786038, max([F,P])=      0.151449793713
 orbitals (Q,E):
 ---------------
 A1 :1...7           ( 2.00   -21.2062)  ( 2.00   -20.6700)  ( 2.00    -1.8581)  ( 2.00    -1.1446)
                     ( 2.00    -0.8904)  ( 2.00    -0.5590)  ( 0.00     0.0808)
 A2 :1...2           ( 2.00    -0.4969)  ( 0.00     0.3604)
 B1 :1...5           ( 2.00   -20.6701)  ( 2.00    -1.4833)  ( 2.00    -0.8368)  ( 2.00    -0.5510)
                     ( 0.00     0.0931)
 B2 :1...2           ( 2.00    -0.8720)  ( 0.00    -0.0990)

 CYCLE    4
  SDIIS (wt  0.000):  0.8926 -0.7899  0.8973
 A-DIIS (wt  1.000):  0.0000  0.3364  0.6636
  DIIS coefficients:  0.0000  0.3364  0.6636
 SCF Error: norm([F,P])=      0.478624704309, max([F,P])=      0.171592205334
 orbitals (Q,E):
 ---------------
 A1 :1...7           ( 2.00   -20.8411)  ( 2.00   -20.7515)  ( 2.00    -1.7458)  ( 2.00    -1.0938)
                     ( 2.00    -0.8254)  ( 2.00    -0.5506)  ( 0.00     0.0925)
 A2 :1...2           ( 2.00    -0.4999)  ( 0.00     0.3580)
 B1 :1...5           ( 2.00   -20.7517)  ( 2.00    -1.4428)  ( 2.00    -0.8063)  ( 2.00    -0.5727)
                     ( 0.00     0.0918)
 B2 :1...2           ( 2.00    -0.7799)  ( 0.00    -0.0497)

 CYCLE    5
  SDIIS (wt  0.416): -0.3337  0.3933  0.0753  0.8652
 A-DIIS (wt  0.584):  0.0000  0.0000  0.0000  1.0000
  DIIS coefficients: -0.1389  0.1636  0.0313  0.9439
 SCF Error: norm([F,P])=      0.169316397039, max([F,P])=      0.058803356775
 orbitals (Q,E):
 ---------------
 A1 :1...7           ( 2.00   -20.9742)  ( 2.00   -20.6862)  ( 2.00    -1.7682)  ( 2.00    -1.0985)
                     ( 2.00    -0.8413)  ( 2.00    -0.5499)  ( 0.00     0.0911)
 A2 :1...2           ( 2.00    -0.4831)  ( 0.00     0.3619)
 B1 :1...5           ( 2.00   -20.6863)  ( 2.00    -1.4370)  ( 2.00    -0.8052)  ( 2.00    -0.5562)
                     ( 0.00     0.0926)
 B2 :1...2           ( 2.00    -0.7988)  ( 0.00    -0.0515)

 CYCLE    6
  SDIIS (wt  0.609):  0.0737 -0.1371 -0.1315  0.1944  1.0005
 A-DIIS (wt  0.391):  0.0000  0.0000  0.0000  0.1231  0.8769
  DIIS coefficients:  0.0449 -0.0834 -0.0800  0.1665  0.9521
 SCF Error: norm([F,P])=      0.097122671516, max([F,P])=      0.039757641453
 orbitals (Q,E):
 ---------------
 A1 :1...7           ( 2.00   -20.9108)  ( 2.00   -20.7172)  ( 2.00    -1.7552)  ( 2.00    -1.0941)
                     ( 2.00    -0.8344)  ( 2.00    -0.5545)  ( 0.00     0.0930)
 A2 :1...2           ( 2.00    -0.4901)  ( 0.00     0.3607)
 B1 :1...5           ( 2.00   -20.7173)  ( 2.00    -1.4373)  ( 2.00    -0.8045)  ( 2.00    -0.5680)
                     ( 0.00     0.0922)
 B2 :1...2           ( 2.00    -0.7867)  ( 0.00    -0.0468)

 CYCLE    7
  SDIIS (wt  0.902): -0.0086  0.0208  0.0215 -0.2286 -0.1158  1.3108
 A-DIIS (wt  0.098):  0.0000  0.0000  0.0000  0.0000  0.0000  1.0000
  DIIS coefficients: -0.0078  0.0187  0.0194 -0.2062 -0.1045  1.2804
 SCF Error: norm([F,P])=      0.028029160934, max([F,P])=      0.010686487688
 orbitals (Q,E):
 ---------------
 A1 :1...7           ( 2.00   -20.9225)  ( 2.00   -20.7084)  ( 2.00    -1.7573)  ( 2.00    -1.0939)
                     ( 2.00    -0.8362)  ( 2.00    -0.5542)  ( 0.00     0.0927)
 A2 :1...2           ( 2.00    -0.4888)  ( 0.00     0.3612)
 B1 :1...5           ( 2.00   -20.7085)  ( 2.00    -1.4364)  ( 2.00    -0.8037)  ( 2.00    -0.5663)
                     ( 0.00     0.0923)
 B2 :1...2           ( 2.00    -0.7875)  ( 0.00    -0.0463)

 CYCLE    8
  SDIIS (wt  0.982): -0.0003  0.0056  0.0150  0.0433 -0.1335 -0.4855  1.5553
 A-DIIS (wt  0.018):  0.0000  0.0000  0.0000  0.0000  0.0000  0.0000  1.0000
  DIIS coefficients: -0.0003  0.0055  0.0147  0.0425 -0.1311 -0.4767  1.5453
 SCF Error: norm([F,P])=      0.004066685096, max([F,P])=      0.002790810278
 orbitals (Q,E):
 ---------------
 A1 :1...7           ( 2.00   -20.9222)  ( 2.00   -20.7094)  ( 2.00    -1.7573)  ( 2.00    -1.0941)
                     ( 2.00    -0.8366)  ( 2.00    -0.5543)  ( 0.00     0.0927)
 A2 :1...2           ( 2.00    -0.4898)  ( 0.00     0.3611)
 B1 :1...5           ( 2.00   -20.7095)  ( 2.00    -1.4366)  ( 2.00    -0.8038)  ( 2.00    -0.5667)
                     ( 0.00     0.0923)
 B2 :1...2           ( 2.00    -0.7869)  ( 0.00    -0.0462)

 CYCLE    9
  SDIIS (wt  1.000):  0.0025 -0.0061 -0.0084  0.0144  0.0689 -0.0271 -0.5486  1.5043
  DIIS coefficients:  0.0025 -0.0061 -0.0084  0.0144  0.0689 -0.0271 -0.5486  1.5043
 SCF Error: norm([F,P])=      0.001347275150, max([F,P])=      0.000635696431
 orbitals (Q,E):
 ---------------
 A1 :1...7           ( 2.00   -20.9223)  ( 2.00   -20.7090)  ( 2.00    -1.7572)  ( 2.00    -1.0941)
                     ( 2.00    -0.8367)  ( 2.00    -0.5541)  ( 0.00     0.0927)
 A2 :1...2           ( 2.00    -0.4900)  ( 0.00     0.3611)
 B1 :1...5           ( 2.00   -20.7091)  ( 2.00    -1.4365)  ( 2.00    -0.8037)  ( 2.00    -0.5665)
                     ( 0.00     0.0923)
 B2 :1...2           ( 2.00    -0.7866)  ( 0.00    -0.0460)

 CYCLE   10
  SDIIS (wt  1.000):  0.0001 -0.0000  0.0013 -0.0055 -0.0051  0.0325  0.0073 -0.2971  1.2664
  DIIS coefficients:  0.0001 -0.0000  0.0013 -0.0055 -0.0051  0.0325  0.0073 -0.2971  1.2664
 SCF Error: norm([F,P])=      0.000309670225, max([F,P])=      0.000102905004
 orbitals (Q,E):
 ---------------
 A1 :1...7           ( 2.00   -20.9224)  ( 2.00   -20.7090)  ( 2.00    -1.7573)  ( 2.00    -1.0941)
                     ( 2.00    -0.8367)  ( 2.00    -0.5541)  ( 0.00     0.0927)
 A2 :1...2           ( 2.00    -0.4901)  ( 0.00     0.3611)
 B1 :1...5           ( 2.00   -20.7091)  ( 2.00    -1.4366)  ( 2.00    -0.8037)  ( 2.00    -0.5664)
                     ( 0.00     0.0923)
 B2 :1...2           ( 2.00    -0.7867)  ( 0.00    -0.0460)

 CYCLE   11
  SDIIS (wt  1.000): -0.0000  0.0001  0.0003  0.0002 -0.0024 -0.0035  0.0256 -0.0380 -0.1179  1.1357
  DIIS coefficients: -0.0000  0.0001  0.0003  0.0002 -0.0024 -0.0035  0.0256 -0.0380 -0.1179  1.1357
 SCF Error: norm([F,P])=      0.000043249009, max([F,P])=      0.000011418671
 orbitals (Q,E):
 ---------------
 A1 :1...7           ( 2.00   -20.9225)  ( 2.00   -20.7090)  ( 2.00    -1.7573)  ( 2.00    -1.0941)
                     ( 2.00    -0.8367)  ( 2.00    -0.5541)  ( 0.00     0.0927)
 A2 :1...2           ( 2.00    -0.4901)  ( 0.00     0.3611)
 B1 :1...5           ( 2.00   -20.7091)  ( 2.00    -1.4366)  ( 2.00    -0.8037)  ( 2.00    -0.5664)
                     ( 0.00     0.0923)
 B2 :1...2           ( 2.00    -0.7867)  ( 0.00    -0.0460)

 CYCLE   12
  SDIIS (wt  1.000): -0.0000 -0.0001  0.0002  0.0003 -0.0008 -0.0026  0.0120 -0.0158 -0.1783  1.1850
  DIIS coefficients: -0.0000 -0.0001  0.0002  0.0003 -0.0008 -0.0026  0.0120 -0.0158 -0.1783  1.1850
 SCF Error: norm([F,P])=      0.000007895020, max([F,P])=      0.000002434944
 orbitals (Q,E):
 ---------------
 A1 :1...7           ( 2.00   -20.9225)  ( 2.00   -20.7090)  ( 2.00    -1.7573)  ( 2.00    -1.0941)
                     ( 2.00    -0.8367)  ( 2.00    -0.5541)  ( 0.00     0.0927)
 A2 :1...2           ( 2.00    -0.4901)  ( 0.00     0.3611)
 B1 :1...5           ( 2.00   -20.7091)  ( 2.00    -1.4366)  ( 2.00    -0.8037)  ( 2.00    -0.5664)
                     ( 0.00     0.0923)
 B2 :1...2           ( 2.00    -0.7867)  ( 0.00    -0.0460)

 CYCLE   13
  SDIIS (wt  1.000):  0.0000 -0.0001 -0.0000  0.0005 -0.0004 -0.0025  0.0150 -0.0157 -0.3682  1.3715
  DIIS coefficients:  0.0000 -0.0001 -0.0000  0.0005 -0.0004 -0.0025  0.0150 -0.0157 -0.3682  1.3715
 SCF Error: norm([F,P])=      0.000002559742, max([F,P])=      0.000001039289
 orbitals (Q,E):
 ---------------
 A1 :1...7           ( 2.00   -20.9225)  ( 2.00   -20.7090)  ( 2.00    -1.7573)  ( 2.00    -1.0941)
                     ( 2.00    -0.8367)  ( 2.00    -0.5541)  ( 0.00     0.0927)
 A2 :1...2           ( 2.00    -0.4901)  ( 0.00     0.3611)
 B1 :1...5           ( 2.00   -20.7091)  ( 2.00    -1.4366)  ( 2.00    -0.8037)  ( 2.00    -0.5664)
                     ( 0.00     0.0923)
 B2 :1...2           ( 2.00    -0.7867)  ( 0.00    -0.0460)

 CYCLE   14
[...]
 A2           10             0.00        0.31212955604796E+01        84.9348
 B2           14             0.00        0.31478156404712E+01        85.6564
 B1           22             0.00        0.31572967951277E+01        85.9144
 A1           28             0.00        0.31999685084627E+01        87.0756
 A1           29             0.00        0.32516909003065E+01        88.4830
 B2           15             0.00        0.33215548187679E+01        90.3841
 B1           23             0.00        0.35221145941065E+01        95.8416
 A2           11             0.00        0.35691548650528E+01        97.1216
 A1           30             0.00        0.36961105763923E+01       100.5763
 B2           16             0.00        0.37177238819355E+01       101.1644
 A1           31             0.00        0.38122773805314E+01       103.7373
 A2           12             0.00        0.38248802919412E+01       104.0803
 B1           24             0.00        0.38671029253033E+01       105.2292
 A1           32             0.00        0.39067452143985E+01       106.3079
 B1           25             0.00        0.39367208188964E+01       107.1236
 A2           13             0.00        0.40244630388828E+01       109.5112
 B1           26             0.00        0.40524250421297E+01       110.2721
 B2           17             0.00        0.41901605472801E+01       114.0201
 A1           33             0.00        0.42313615063874E+01       115.1412
 A1           34             0.00        0.46902834072530E+01       127.6291
 B1           27             0.00        0.50585876685196E+01       137.6512
 A1           35             0.00        0.61999241055059E+01       168.7085
 B1           28             0.00        0.64297472228110E+01       174.9623
 B1           29             0.00        0.73298428671573E+01       199.4552
 A1           36             0.00        0.74002847595876E+01       201.3720
 B2           18             0.00        0.74312546306063E+01       202.2147
 A2           14             0.00        0.75084604026665E+01       204.3156
 B2           19             0.00        0.75217758004340E+01       204.6779
 A1           37             0.00        0.76170310316559E+01       207.2700
 A1           38             0.00        0.77673804927972E+01       211.3612
 B2           20             0.00        0.78032915582042E+01       212.3384
 B1           30             0.00        0.79061718762770E+01       215.1379
 A2           15             0.00        0.79253281153401E+01       215.6592
 B1           31             0.00        0.79821494524683E+01       217.2053
 A1           39             0.00        0.82017376207615E+01       223.1806
 A2           16             0.00        0.82753549509195E+01       225.1839
 B2           21             0.00        0.85243562987335E+01       231.9595
 B1           32             0.00        0.85396566737863E+01       232.3759
 A1           40             0.00        0.86080658972573E+01       234.2374
 A2           17             0.00        0.89820596788180E+01       244.4143
 B2           22             0.00        0.91674845430042E+01       249.4599
 B1           33             0.00        0.94914087211063E+01       258.2744
 B1           34             0.00        0.97756674611936E+01       266.0094
 A1           41             0.00        0.10425518054622E+02       283.6928
 A1           42             0.00        0.12958025556248E+02       352.6058
 B2           23             0.00        0.12980305724364E+02       353.2121
 B1           35             0.00        0.13993356993956E+02       380.7786
 A1           43             0.00        0.14326663812962E+02       389.8484
 A1           44             0.00        0.15510913925351E+02       422.0734
 A2           18             0.00        0.15626907714713E+02       425.2298
 B1           36             0.00        0.15707616798040E+02       427.4260
 A1           45             0.00        0.16303504788117E+02       443.6409
 B1           37             0.00        0.16335143610091E+02       444.5019
 B2           24             0.00        0.16446139663273E+02       447.5222
 A1           46             0.00        0.18597431256300E+02       506.0619
 B1           38             0.00        0.18920942518697E+02       514.8650
 A1           47             0.00        0.54581928866176E+02      1485.2499
 B1           39             0.00        0.56795155611015E+02      1545.4748
 A1           48             0.00        0.57618915632196E+02      1567.8905
 A1           49             0.00        0.33358984762379E+03      9077.4416
 B1           40             0.00        0.34147645319040E+03      9292.0471
 A1           50             0.00        0.34477127643228E+03      9381.7038


 All Electron Calculation, thus no Orbital Energies of the Core Orbitals are calculated



 =======================
 T O T A L   E N E R G Y  ***  (contributions)  ***
 =======================
  

*** Note ***

The requirements to the integration accuracy are somewhat higher than for bond energies.
One can expect an accuracy of roughly (accint-2) decimal places, where accint is the
general integration accuracy parameter.
The Coulomb energy is the sum of the Hartree energy (electron-electron Coulomb interaction)
and the nuclear-electron attraction energy. It includes the correction for the first-order
fit error in the Hartree energy.
The potential energy is the sum of the nuclear repulsion energy, the Coulomb energy,
and the exchange-correlation energy.

Kinetic energy           =          223.897418809431

Nuclear repulsion energy =           69.027000022559
Coulomb energy           =         -492.971146404755
XC energy                =          -24.330548467139
Total potential energy   =         -448.274694849334

----------------------------------------------------
Total energy             =         -224.377276039904
Virial theorem           =            2.002143201262
----------------------------------------------------

 Gross Charges per Atom (Z minus electrons)
 ==========================================
             0.3196   -0.1598   -0.1598
 Net Total:  0.00000000



 =================================================================
 M U L T I P O L E   D E R I V E D   C H A R G E   A N A L Y S I S
 =================================================================

 This charge analysis uses the atomic multipoles (obtained from the fitted density) up to some level X,
 and reconstructs these multipoles exactly (up to level X) by distributing charges over all atoms.
 This is achieved by using Lagrange multipliers and a weight function to keep the multipoles local.

 Dummy atoms can be included (by setting INCDUM in MDC-block to 1) to obtain a fractional charge.
 This is generally useful and necessary only for small symmetrical molecules, when there are not
 enough degrees of freedom to reconstruct the multipoles.

 Since the atomic multipoles are reconstructed up to level X,
 the molecular multipoles are represented also up to level X.
 The recommended level is to reconstruct up to quadrupole : -> MDC-q charges.

 See: M. Swart, P.Th. van Duijnen, J.G. Snijders, J.Comput.Chem., (2001), p. 79-88.

 ------------------------------------------------------------- 
 Atomic electronic multipole moments from SCF equations (a.u.)
 ------------------------------------------------------------- 

   atom        charge        dip-x     dip-y     dip-z      quad-xx   quad-xy   quad-xz   quad-yy   quad-yz   quad-zz
 --------------------------------------------------------------------------------------------------------------------
    1 O      0.257284     0.000000 -0.000000  0.225264     0.268162 -0.000000  0.000000 -0.080533 -0.000000 -0.187629
    2 O     -0.128642     0.208842 -0.000000 -0.108206     0.396676 -0.000000 -0.377006 -0.140050 -0.000000 -0.256626
    3 O     -0.128642    -0.208842  0.000000 -0.108206     0.396676 -0.000000  0.377006 -0.140050 -0.000000 -0.256626

 --------------------------------------- 
 Multipole derived atomic charges (a.u.)
 --------------------------------------- 

 The MDC-m charges are just the Monopole terms in the multipole expansion, while for the MDC-d charges
 also the Dipoles are reconstructed. The usually preferred charges are the MDC-q charges.
 These reconstruct the Monopoles, Dipoles and Quadrupoles (both atomic AND molecular).

        Atom    Level:     MDC-m        MDC-d        MDC-q
 ---------------------------------------------------------
     1     O            0.257284     0.250206     0.280485
     2     O           -0.128642    -0.125103    -0.140243
     3     O           -0.128642    -0.125103    -0.140243

 ------------------------------------------------ 
 Average absolute deviations in atomic multipoles
 ------------------------------------------------ 

 Stated here are the average differences between the atomic multipoles
 and the reconstructed atomic multipoles (from the distributed charges).
 If these values are not zero, this means there are not enough degrees of freedom,
 to be able to reconstruct the atomic multipoles. (This usually happens only
 for small and/or highly symmetric molecules). If this is the case, one could add
 dummy atoms as extra point charges (and setting INCDUM in MDC-block to 1).

 Level:                                 MDC-d        MDC-q
 ---------------------------------------------------------
 Charge   (a.u.)                       0.0000       0.0000
 Dipole   (Debye)                      0.0000       0.0968
 Quad.    (a.u.)                       0.1032       0.0438

 --------------------------------------- 
 Represented molecular multipole moments
 --------------------------------------- 

 Given here are the Molecular multipole moments from the atomic charges, and from the Fit Density.
 Note that the atomic charges represent the latter, NOT the ones from the Exact density.

            Q (a.u.)             Dipole moment (Debye)                                          Quadrupole moment (a.u.)
                                 x         y         z              xx        xy        xz        yy        yz        zz
------------------------------------------------------------------------------------------------------------------------
MDC-m         0.0000        0.0000    0.0000   -0.8179         -0.8755    0.0000    0.0000    0.7396    0.0000    0.1359
MDC-d         0.0000       -0.0000    0.0000   -0.7954         -0.8514    0.0000   -0.0000    0.7192    0.0000    0.1322
MDC-q         0.0000        0.0000    0.0000   -0.8916         -0.9544    0.0000    0.0000    0.8063    0.0000    0.1481
 
Fit.Dens.     0.0000       -0.0000   -0.0000   -0.7954         -1.2522   -0.0000   -0.0000    1.5040   -0.0000   -0.2519



 =============
 Dipole Moment  ***  (Debye)  ***
 =============
  
 Vector   :        -0.00000000      0.00000000     -0.79558217
 Magnitude:         0.79558217

 This molecular dipole moment is calculated with analytic integration



 =========================================
 Quadrupole Moment (Buckingham convention)  ***  (a.u.)  ***
 =========================================
  
      quad-xx        quad-xy        quad-xz        quad-yy        quad-yz        quad-zz
     -1.25193157     0.00000000    -0.00000000     1.50420199     0.00000000    -0.25227043

 This molecular quadrupole moment is calculated with analytic integration



 =======================================================================
 Electrostatic potential at the Nuclei due to electrons and other nuclei
 =======================================================================
  
         Atom                  Potential
         ----                  ---------
     1)   O                  21.98974575
     2)   O                  22.20873644
     3)   O                  22.20873644
 
 
 ========================
 No memory problems found
 ========================
 
 Maximum number of active allocate calls:         743
 
 *******************************************************************************

                             A D F   E X I T
 NORMAL TERMINATION



 =================
 Timing Statistics
 =================
  
 Total Used :                     CPU=        4.34      System=        0.09     Elapsed=        4.66

 Calls  Section                     ( Mean, Percentage )
 ---------------------------------------------------------------------------------------------------
     3  ><      ................      0.00    0.05             0.00    0.01             0.00    0.04
     1  INIT    ................      0.39    9.11             0.00    0.00             0.60   12.83
     1  GEOMET  ................      0.03    0.60             0.01    9.09             0.04    0.77
     1  FRAGM   ................      0.00    0.04             0.01    8.50             0.01    0.31
     1  INPUTA  ................      0.00    0.03             0.00    0.11             0.00    0.03
     1  ATDEN   ................      0.00    0.00             0.00    2.72             0.00    0.06
     1  MAINSY  ................      0.01    0.20             0.00    1.74             0.01    0.22
     1  SYMFIT  ................      0.00    0.03             0.00    0.00             0.00    0.03
     1  CORORT  ................      0.00    0.02             0.00    0.00             0.00    0.01
     1  SYMORB  ................      0.00    0.04             0.00    0.00             0.00    0.03
     1  FITINT  ................      0.10    2.31             0.00    0.02             0.10    2.15
     1  CLSMAT  ................      0.00    0.04             0.00    0.00             0.00    0.04
     1  ORTHON  ................      0.01    0.26             0.00    0.00             0.01    0.30
     1  GENPT   ................      0.03    0.71             0.00    0.00             0.03    0.68
     1  PTBAS   ................      0.01    0.31             0.00    0.00             0.01    0.29
    15  FOCKY   ................      0.23   80.98             0.00   66.66             0.24   76.84
    15  FOCKTR  ................      0.00    0.55             0.00    1.87             0.00    0.55
    15  SDIIS   ................      0.00    0.72             0.00    4.98             0.00    0.82
     1  COREPS  ................      0.03    0.77             0.00    0.00             0.03    0.71
     1  POPAN   ................      0.12    2.74             0.00    0.00             0.13    2.74
     1  DEBYE   ................      0.00    0.02             0.00    3.90             0.00    0.10
     1  EXIT PROCEDURE .........      0.02    0.47             0.00    0.40             0.02    0.44


 Currently Open Files (EXIT00)
 ====================

 Unit    Access Format  Status   Type       Ident (file)
 -------------------------------------------------------
   3      SEQ    FORM   TRANSP  NORMAL      LOGFILE
                                          ( logfile )


 Buffered I/O statistics
 =======================
 Memory available:                     67108864
 Number of records fitting in memory:     16131
 Input :   0.1% of                        64636  *4k bytes
 Output:   3.4% of                         9625  *4k bytes
 Records from serial files evicted:           0
                    others evicted:           0
 Hash table lookups:     175198 with          0 conflicts (  0.00%)

 ***************************************************************************************************
 (LOGFILE)
 <Mar29-2019> <09:18:53>  ADF 2018  RunTime: Mar29-2019 09:18:53  Nodes: 1  Procs: 1
 <Mar29-2019> <09:18:53>  Oxygen (QZ, all electron, 8S 4P 2D 2F)
 <Mar29-2019> <09:18:53>  RunType   : CREATE
 <Mar29-2019> <09:18:53>  Net Charge: 0 (Nuclei minus Electrons)
 <Mar29-2019> <09:18:53>  Symmetry  : ATOM
  Coordinates
    Atom         X           Y           Z   (Angstrom)
    1.O         0.000000    0.000000    0.000000
 <Mar29-2019> <09:18:53>  >>>> CORORT
 <Mar29-2019> <09:18:53>  >>>> FITINT
 <Mar29-2019> <09:18:53>  >>>> CLSMAT
 <Mar29-2019> <09:18:53>  >>>> ORTHON
 <Mar29-2019> <09:18:53>  >>>> GENPT
 <Mar29-2019> <09:18:53>  Block Length=  81
 <Mar29-2019> <09:18:53>  >>>> PTBAS
 <Mar29-2019> <09:18:53>  >>>> CYCLE
 <Mar29-2019> <09:18:54>  CalcFitR12Fit
 <Mar29-2019> <09:18:54>  CalcFitCoeff
 <Mar29-2019> <09:18:54>              |Error|         MaxErr       Wt(A-DIIS)
 <Mar29-2019> <09:18:54>      1      0.00000000      0.00000000
 <Mar29-2019> <09:18:54>      2      9.91132878      4.13110620    100.0
 <Mar29-2019> <09:18:54>      3      2.97484677      2.32990073    100.0
 <Mar29-2019> <09:18:54>      4      1.33229858      0.57122548    100.0
 <Mar29-2019> <09:18:54>      5      0.73252539      0.34479391    100.0
 <Mar29-2019> <09:18:54>      6      0.32477209      0.14082594    100.0
 <Mar29-2019> <09:18:54>      7      0.16218953      0.07257303     72.3
 <Mar29-2019> <09:18:54>      8      0.05698668      0.02539201     24.6
 <Mar29-2019> <09:18:54>      9      0.00689465      0.00305469      2.1
 <Mar29-2019> <09:18:54>     10      0.00010073      0.00004792      0.0
 <Mar29-2019> <09:18:54>     11      0.00000274      0.00000146      0.0
 <Mar29-2019> <09:18:54>     12      0.00000008      0.00000004      0.0
 <Mar29-2019> <09:18:54>     13      0.00000000      0.00000000      0.0
 <Mar29-2019> <09:18:54>  SCF converged
 <Mar29-2019> <09:18:54>     14      0.00000000      0.00000000      0.0
 <Mar29-2019> <09:18:54>  >>>> POPAN
 <Mar29-2019> <09:18:54>  >>>> DEBYE
 <Mar29-2019> <09:18:54>  NORMAL TERMINATION
 <Mar29-2019> <09:18:54>  END
 <Mar29-2019> <09:18:54>  ADF 2018  RunTime: Mar29-2019 09:18:54  Nodes: 1  Procs: 4
 <Mar29-2019> <09:18:55>  O3
 <Mar29-2019> <09:18:55>  RunType   : SINGLE POINT
 <Mar29-2019> <09:18:55>  Net Charge: 0 (Nuclei minus Electrons)
 <Mar29-2019> <09:18:55>  Symmetry  : C(2V)
 <Mar29-2019> <09:18:55>  >>>> FRAGM
  Coordinates
    Atom         X           Y           Z   (Angstrom)
    1.O         0.000000    0.000000    0.000000
    2.O        -1.082525    0.000000    0.661836
    3.O         1.082525    0.000000    0.661836
 <Mar29-2019> <09:18:55>  >>>> CORORT
 <Mar29-2019> <09:18:55>  >>>> FITINT
 <Mar29-2019> <09:18:55>  >>>> CLSMAT
 <Mar29-2019> <09:18:55>  >>>> ORTHON
 <Mar29-2019> <09:18:55>  >>>> GENPT
 <Mar29-2019> <09:18:55>  Block Length= 128
 <Mar29-2019> <09:18:55>  >>>> PTBAS
 <Mar29-2019> <09:18:55>  >>>> CYCLE
 <Mar29-2019> <09:18:55>  CalcFitR12Fit
 <Mar29-2019> <09:18:55>  CalcFitCoeff
 <Mar29-2019> <09:18:57>              |Error|         MaxErr       Wt(A-DIIS)
 <Mar29-2019> <09:18:57>      1      3.72872405      1.75936430
 <Mar29-2019> <09:18:57>      2      0.90750434      0.30673750    100.0
 <Mar29-2019> <09:18:57>      3      0.53155179      0.15144979    100.0
 <Mar29-2019> <09:18:57>      4      0.47862470      0.17159221    100.0
 <Mar29-2019> <09:18:57>      5      0.16931640      0.05880336     58.4
 <Mar29-2019> <09:18:57>      6      0.09712267      0.03975764     39.1
 <Mar29-2019> <09:18:57>      7      0.02802916      0.01068649      9.8
 <Mar29-2019> <09:18:58>      8      0.00406669      0.00279081      1.8
 <Mar29-2019> <09:18:58>      9      0.00134728      0.00063570      0.0
 <Mar29-2019> <09:18:58>     10      0.00030967      0.00010291      0.0
 <Mar29-2019> <09:18:58>     11      0.00004325      0.00001142      0.0
 <Mar29-2019> <09:18:58>     12      0.00000790      0.00000243      0.0
 <Mar29-2019> <09:18:58>     13      0.00000256      0.00000104      0.0
 <Mar29-2019> <09:18:58>     14      0.00000082      0.00000035      0.0
 <Mar29-2019> <09:18:58>  SCF converged
 <Mar29-2019> <09:18:59>     15      0.00000018      0.00000007      0.0
 <Mar29-2019> <09:18:59>   Total energy       -224.37727604 a.u.
 <Mar29-2019> <09:18:59>  >>>> POPAN
 <Mar29-2019> <09:18:59>  >>>> DEBYE
 <Mar29-2019> <09:18:59>  NORMAL TERMINATION
 <Mar29-2019> <09:18:59>  END
