[Molden Format]
[Title]
 Molden file created by orca_2mkl for BaseName=mol

[Atoms] AU
Fe   1  26          0.0000000000         0.0000000000         0.0000000000 
[GTO]
  1 0
s  11 1.0 
  4313154.4337999998         0.6126289537
   645875.0825300000         1.1466815297
   146981.8769800000         1.9864188423
    41630.6150440000         3.2521687881
    13580.6201090000         5.0839763582
     4902.0620613000         7.5930706500
     1911.2900837000        10.6956188098
      791.9983785200        13.7180131405
      344.5479918100        14.8866998393
      155.7872273000        11.8035333051
       72.1793803150         5.1275574453
s   4 1.0 
     1417.9125091000         1.2543744791
      439.2318419500         5.1017573379
      168.5100682000        11.3206003604
       72.7762694120        11.2050711021
s   1 1.0 
       32.7529617740         9.7577126801
s   1 1.0 
       15.4343361010         5.5497837020
s   1 1.0 
        7.3639318205         3.1859753506
s   1 1.0 
        3.1698832880         1.6931387386
s   1 1.0 
        1.5243708395         0.9777505445
s   1 1.0 
        0.6749628115         0.5307255259
s   1 1.0 
        0.1471856603         0.1693593654
s   1 1.0 
        0.0700822166         0.0970769145
s   1 1.0 
        0.0312082694         0.0529190887
p   9 1.0 
     7709.0587627000        18.2666948204
     1826.4666323000        26.5268338247
      592.8436836200        36.1826852853
      225.9376324500        44.4815320474
       95.1647588900        47.1012703152
       42.8231323750        39.3799640566
       20.0362865810        23.1003261524
        9.6159346283         7.4860092067
        4.5393538787         0.8283222186
p   5 1.0 
       62.9975190030        -1.2145099976
       22.2627487310        -1.5951319267
        4.3900064942         2.0794208992
        2.0328913928         1.6568836975
        0.9159262158         0.4963867585
p   1 1.0 
        0.3803665351         0.4257875548
p   1 1.0 
        0.1600000000         0.1442414456
p   1 1.0 
        0.0670000000         0.0485885111
p   1 1.0 
        0.0280000000         0.0163262945
d   6 1.0 
      218.3343016300        54.1457272163
       65.2562926160        55.8583221826
       24.8669448170        46.8457532957
       10.4733993010        31.4166069470
        4.6947005007        16.2005379154
        2.1315982534         5.7689002202
d   1 1.0 
        0.9474800461         2.5939864935
d   1 1.0 
        0.4034648883         0.5822776749
d   1 1.0 
        0.1568741473         0.1114769288
d   1 1.0 
        0.0620000000         0.0219611734
f   1 1.0 
        5.1030000000       223.1555065891
f   1 1.0 
        1.5980000000        16.3699677160
f   1 1.0 
        0.5050000000         1.2257606632
g   1 1.0 
        2.1280000000        52.5280661721

[5D]
[9G]
[MO]
 Sym=     1a
 Ene= -2.61181321626253E+02
 Spin= Alpha
 Occup= 1.000000
  1      -0.955120569229
  2       0.000361455097
  3      -0.066866586833
  4       0.000825175946
  5      -0.001735398928
  6       0.000818033151
  7      -0.000374506429
  8       0.000145997354
  9      -0.000052687612
 10       0.000041023798
 11      -0.000012753843
 12       0.000000000000
 13      -0.000000000000
 14       0.000000000000
 15       0.000000000000
 16       0.000000000000
 17      -0.000000000000
 18      -0.000000000000
 19       0.000000000000
 20       0.000000000000
 21       0.000000000000
 22      -0.000000000000
 23      -0.000000000000
 24       0.000000000000
 25       0.000000000000
 26      -0.000000000000
 27      -0.000000000000
 28       0.000000000000
 29       0.000000000000
 30       0.000002976063
 31       0.000000000000
 32      -0.000000000000
 33       0.000000000000
 34      -0.000000000000
 35      -0.000003000277
 36       0.000000000000
 37      -0.000000000000
 38       0.000000000000
 39       0.000000000000
 40       0.000002073377
 41      -0.000000000000
 42       0.000000000000
 43      -0.000000000000
 44      -0.000000000000
 45      -0.000001005774
 46       0.000000000000
 47      -0.000000000000
 48       0.000000000000
 49       0.000000000000
 50       0.000000348821
 51       0.000000000000
 52       0.000000000000
 53      -0.000000000000
 54       0.000000000000
 55       0.000000000000
 56       0.000000000000
 57      -0.000000000000
 58       0.000000000000
 59      -0.000000000000
 60      -0.000000000000
 61      -0.000000000000
 62      -0.000000000000
 63      -0.000000000000
 64       0.000000000000
 65      -0.000000000000
 66      -0.000000000000
 67       0.000000000000
 68      -0.000000000000
 69       0.000000000000
 70       0.000000000000
 71      -0.000000000000
 72      -0.000000000000
 73      -0.000000000000
 74      -0.000000000000
 75      -0.000000000000
 76       0.000000063280
 77      -0.000000000000
 78      -0.000000000000
 79      -0.000000000000
 80      -0.000000000000
 81       0.000000000000
 82       0.000000000000
 83      -0.000000000000
 84       0.000000000000
 Sym=     1a
 Ene= -3.17614932039164E+01
 Spin= Alpha
 Occup= 1.000000
  1      -0.292425512457
  2      -0.177347687097
  3       0.050564342852
  4       0.524026232409
  5       0.498615753518
  6       0.086753229891
  7      -0.003656702767
  8       0.002708359908
  9      -0.000557803788
 10       0.000444747644
 11      -0.000138159269
 12       0.000000000000
 13       0.000000000000
 14       0.000000000000
 15       0.000000000000
 16      -0.000000000000
 17       0.000000000000
 18       0.000000000000
 19       0.000000000000
 20      -0.000000000000
 21      -0.000000000000
 22      -0.000000000000
 23       0.000000000000
 24      -0.000000000000
 25       0.000000000000
 26       0.000000000000
 27      -0.000000000000
 28       0.000000000000
 29      -0.000000000000
 30      -0.000926991479
 31       0.000000000000
 32      -0.000000000000
 33       0.000000000000
 34       0.000000000000
 35       0.000569990447
 36       0.000000000000
 37      -0.000000000000
 38      -0.000000000000
 39      -0.000000000000
 40      -0.000372005628
 41      -0.000000000000
 42       0.000000000000
 43       0.000000000000
 44       0.000000000000
 45       0.000179282836
 46       0.000000000000
 47      -0.000000000000
 48      -0.000000000000
 49      -0.000000000000
 50      -0.000062182477
 51       0.000000000000
 52       0.000000000000
 53       0.000000000000
 54      -0.000000000000
 55       0.000000000000
 56       0.000000000000
 57      -0.000000000000
 58       0.000000000000
 59      -0.000000000000
 60      -0.000000000000
 61      -0.000000000000
 62      -0.000000000000
 63       0.000000000000
 64       0.000000000000
 65      -0.000000000000
 66       0.000000000000
 67       0.000000000000
 68      -0.000000000000
 69       0.000000000000
 70       0.000000000000
 71       0.000000000000
 72      -0.000000000000
 73      -0.000000000000
 74      -0.000000000000
 75       0.000000000000
 76       0.000078597955
 77       0.000000000000
 78       0.000000000000
 79      -0.000000000000
 80      -0.000000000000
 81       0.000000000000
 82      -0.000000000000
 83       0.000000000000
 84       0.000000000000
 Sym=     1a
 Ene= -2.72527129042899E+01
 Spin= Alpha
 Occup= 1.000000
  1       0.000000000000
  2      -0.000000000000
  3       0.000000000000
  4      -0.000000000000
  5      -0.000000000000
  6       0.000000000000
  7      -0.000000000000
  8       0.000000000000
  9      -0.000000000000
 10       0.000000000000
 11      -0.000000000000
 12      -0.997257318335
 13       0.000000000000
 14       0.000000000000
 15      -0.007917672301
 16      -0.000000000000
 17       0.000000000000
 18       0.001723981487
 19       0.000000000000
 20       0.000000000000
 21      -0.001321635111
 22       0.000000000000
 23      -0.000000000000
 24       0.000681054174
 25      -0.000000000000
 26       0.000000000000
 27      -0.000219507551
 28      -0.000000000000
 29      -0.000000000000
 30       0.000000000000
 31      -0.000000000000
 32      -0.000000000000
 33       0.000000000000
 34      -0.000000000000
 35       0.000000000000
 36      -0.000000000000
 37       0.000000000000
 38       0.000000000000
 39       0.000000000000
 40      -0.000000000000
 41       0.000000000000
 42      -0.000000000000
 43       0.000000000000
 44       0.000000000000
 45       0.000000000000
 46      -0.000000000000
 47       0.000000000000
 48      -0.000000000000
 49      -0.000000000000
 50      -0.000000000000
 51       0.000000000000
 52      -0.000000000000
 53      -0.000000000000
 54       0.000000000000
 55      -0.000000000000
 56       0.000483996739
 57       0.000000000000
 58       0.000000000000
 59       0.000000000000
 60      -0.000000000000
 61      -0.000000000000
 62       0.000000000000
 63      -0.000085165586
 64       0.000000000000
 65       0.000000000000
 66      -0.000000000000
 67      -0.000000000000
 68      -0.000000000000
 69      -0.000000000000
 70       0.000033481150
 71      -0.000000000000
 72       0.000000000000
 73      -0.000000000000
 74       0.000000000000
 75      -0.000000000000
 76       0.000000000000
 77       0.000000000000
 78      -0.000000000000
 79       0.000000000000
 80       0.000000000000
 81      -0.000000000000
 82       0.000000000000
 83      -0.000000000000
 84       0.000000000000
 Sym=     1a
 Ene= -2.72527129042899E+01
 Spin= Alpha
 Occup= 1.000000
  1       0.000000000000
  2      -0.000000000000
  3       0.000000000000
  4      -0.000000000000
  5       0.000000000000
  6      -0.000000000000
  7       0.000000000000
  8      -0.000000000000
  9       0.000000000000
 10      -0.000000000000
 11      -0.000000000000
 12      -0.000000000000
 13       0.997257318335
 14       0.000000000000
 15       0.000000000000
 16       0.007917672301
 17      -0.000000000000
 18       0.000000000000
 19      -0.001723981487
 20       0.000000000000
 21       0.000000000000
 22       0.001321635111
 23      -0.000000000000
 24      -0.000000000000
 25      -0.000681054174
 26       0.000000000000
 27       0.000000000000
 28       0.000219507551
 29       0.000000000000
 30       0.000000000000
 31      -0.000000000000
 32       0.000000000000
 33      -0.000000000000
 34      -0.000000000000
 35      -0.000000000000
 36       0.000000000000
 37      -0.000000000000
 38       0.000000000000
 39       0.000000000000
 40       0.000000000000
 41      -0.000000000000
 42       0.000000000000
 43      -0.000000000000
 44       0.000000000000
 45       0.000000000000
 46       0.000000000000
 47      -0.000000000000
 48       0.000000000000
 49      -0.000000000000
 50      -0.000000000000
 51      -0.000000000000
 52       0.000000000000
 53      -0.000000000000
 54       0.000000000000
 55      -0.000000000000
 56       0.000000000000
 57      -0.000483996739
 58      -0.000000000000
 59      -0.000000000000
 60      -0.000000000000
 61      -0.000000000000
 62       0.000000000000
 63      -0.000000000000
 64       0.000085165586
 65       0.000000000000
 66       0.000000000000
 67       0.000000000000
 68      -0.000000000000
 69      -0.000000000000
 70       0.000000000000
 71      -0.000033481150
 72       0.000000000000
 73      -0.000000000000
 74      -0.000000000000
 75       0.000000000000
 76      -0.000000000000
 77      -0.000000000000
 78       0.000000000000
 79      -0.000000000000
 80       0.000000000000
 81      -0.000000000000
 82      -0.000000000000
 83       0.000000000000
 84       0.000000000000
 Sym=     1a
 Ene= -2.72222446235697E+01
 Spin= Alpha
 Occup= 1.000000
  1      -0.000000000000
  2       0.000000000000
  3      -0.000000000000
  4       0.000000000000
  5       0.000000000000
  6      -0.000000000000
  7       0.000000000000
  8      -0.000000000000
  9       0.000000000000
 10      -0.000000000000
 11       0.000000000000
 12      -0.000000000000
 13       0.000000000000
 14       0.997494698267
 15      -0.000000000000
 16       0.000000000000
 17       0.007185375796
 18      -0.000000000000
 19      -0.000000000000
 20      -0.001211056032
 21      -0.000000000000
 22       0.000000000000
 23       0.000908977616
 24       0.000000000000
 25       0.000000000000
 26      -0.000448342396
 27       0.000000000000
 28      -0.000000000000
 29       0.000143180221
 30       0.000000000000
 31       0.000000000000
 32      -0.000000000000
 33      -0.000000000000
 34       0.000000000000
 35       0.000000000000
 36      -0.000000000000
 37       0.000000000000
 38      -0.000000000000
 39       0.000000000000
 40       0.000000000000
 41      -0.000000000000
 42       0.000000000000
 43       0.000000000000
 44      -0.000000000000
 45      -0.000000000000
 46       0.000000000000
 47      -0.000000000000
 48       0.000000000000
 49      -0.000000000000
 50       0.000000000000
 51      -0.000000000000
 52       0.000000000000
 53       0.000000000000
 54      -0.000000000000
 55      -0.000106934627
 56      -0.000000000000
 57       0.000000000000
 58       0.000000000000
 59      -0.000000000000
 60      -0.000000000000
 61       0.000000000000
 62       0.000038150511
 63       0.000000000000
 64      -0.000000000000
 65      -0.000000000000
 66       0.000000000000
 67       0.000000000000
 68       0.000000000000
 69      -0.000013421353
 70      -0.000000000000
 71      -0.000000000000
 72      -0.000000000000
 73       0.000000000000
 74       0.000000000000
 75      -0.000000000000
 76       0.000000000000
 77       0.000000000000
 78      -0.000000000000
 79       0.000000000000
 80      -0.000000000000
 81       0.000000000000
 82      -0.000000000000
 83       0.000000000000
 84       0.000000000000
 Sym=     1a
 Ene= -4.09082678481440E+00
 Spin= Alpha
 Occup= 1.000000
  1       0.107716749353
  2       0.077152850149
  3      -0.019912267127
  4      -0.314472863287
  5      -0.450928548577
  6       0.153395003617
  7       0.708538943712
  8       0.394686466290
  9       0.022713912264
 10      -0.011186523494
 11       0.003008925510
 12       0.000000000000
 13      -0.000000000000
 14      -0.000000000000
 15      -0.000000000000
 16       0.000000000000
 17      -0.000000000000
 18       0.000000000000
 19       0.000000000000
 20       0.000000000000
 21      -0.000000000000
 22      -0.000000000000
 23      -0.000000000000
 24       0.000000000000
 25       0.000000000000
 26      -0.000000000000
 27       0.000000000000
 28      -0.000000000000
 29       0.000000000000
 30      -0.009695016132
 31       0.000000000000
 32       0.000000000000
 33       0.000000000000
 34       0.000000000000
 35      -0.005966514638
 36      -0.000000000000
 37       0.000000000000
 38       0.000000000000
 39      -0.000000000000
 40       0.001288960473
 41       0.000000000000
 42      -0.000000000000
 43      -0.000000000000
 44       0.000000000000
 45      -0.000770478999
 46      -0.000000000000
 47       0.000000000000
 48       0.000000000000
 49      -0.000000000000
 50       0.000287087559
 51       0.000000000000
 52      -0.000000000000
 53      -0.000000000000
 54      -0.000000000000
 55       0.000000000000
 56       0.000000000000
 57      -0.000000000000
 58      -0.000000000000
 59       0.000000000000
 60       0.000000000000
 61      -0.000000000000
 62      -0.000000000000
 63      -0.000000000000
 64       0.000000000000
 65       0.000000000000
 66      -0.000000000000
 67       0.000000000000
 68       0.000000000000
 69      -0.000000000000
 70      -0.000000000000
 71      -0.000000000000
 72      -0.000000000000
 73       0.000000000000
 74       0.000000000000
 75      -0.000000000000
 76       0.002549086823
 77       0.000000000000
 78       0.000000000000
 79      -0.000000000000
 80       0.000000000000
 81      -0.000000000000
 82      -0.000000000000
 83       0.000000000000
 84       0.000000000000
 Sym=     1a
 Ene= -2.72673964574561E+00
 Spin= Alpha
 Occup= 1.000000
  1      -0.000000000000
  2       0.000000000000
  3      -0.000000000000
  4       0.000000000000
  5      -0.000000000000
  6       0.000000000000
  7       0.000000000000
  8      -0.000000000000
  9       0.000000000000
 10       0.000000000000
 11      -0.000000000000
 12       0.000000000000
 13      -0.368609343331
 14      -0.000000000000
 15      -0.000000000000
 16       1.002750529942
 17       0.000000000000
 18       0.000000000000
 19       0.100429737194
 20      -0.000000000000
 21      -0.000000000000
 22      -0.001832316583
 23       0.000000000000
 24       0.000000000000
 25       0.004076618688
 26      -0.000000000000
 27      -0.000000000000
 28      -0.001071005017
 29       0.000000000000
 30      -0.000000000000
 31       0.000000000000
 32       0.000000000000
 33      -0.000000000000
 34      -0.000000000000
 35       0.000000000000
 36      -0.000000000000
 37      -0.000000000000
 38       0.000000000000
 39       0.000000000000
 40      -0.000000000000
 41       0.000000000000
 42       0.000000000000
 43      -0.000000000000
 44      -0.000000000000
 45       0.000000000000
 46      -0.000000000000
 47      -0.000000000000
 48       0.000000000000
 49      -0.000000000000
 50      -0.000000000000
 51      -0.000000000000
 52       0.000000000000
 53      -0.000000000000
 54      -0.000000000000
 55       0.000000000000
 56      -0.000000000000
 57      -0.002377152930
 58       0.000000000000
 59       0.000000000000
 60       0.000000000000
 61      -0.000000000000
 62      -0.000000000000
 63      -0.000000000000
 64      -0.005889283869
 65      -0.000000000000
 66      -0.000000000000
 67      -0.000000000000
 68      -0.000000000000
 69       0.000000000000
 70       0.000000000000
 71      -0.000983433222
 72       0.000000000000
 73      -0.000000000000
 74       0.000000000000
 75       0.000000000000
 76       0.000000000000
 77      -0.000000000000
 78      -0.000000000000
 79       0.000000000000
 80       0.000000000000
 81       0.000000000000
 82       0.000000000000
 83      -0.000000000000
 84       0.000000000000
 Sym=     1a
 Ene= -2.72673964574560E+00
 Spin= Alpha
 Occup= 1.000000
  1      -0.000000000000
  2       0.000000000000
  3      -0.000000000000
  4       0.000000000000
  5      -0.000000000000
  6      -0.000000000000
  7       0.000000000000
  8      -0.000000000000
  9       0.000000000000
 10      -0.000000000000
 11       0.000000000000
 12      -0.368609343331
 13       0.000000000000
 14      -0.000000000000
 15       1.002750529942
 16      -0.000000000000
 17      -0.000000000000
 18       0.100429737194
 19      -0.000000000000
 20      -0.000000000000
 21      -0.001832316583
 22       0.000000000000
 23      -0.000000000000
 24       0.004076618688
 25       0.000000000000
 26       0.000000000000
 27      -0.001071005017
 28      -0.000000000000
 29      -0.000000000000
 30       0.000000000000
 31       0.000000000000
 32       0.000000000000
 33       0.000000000000
 34       0.000000000000
 35       0.000000000000
 36      -0.000000000000
 37       0.000000000000
 38      -0.000000000000
 39      -0.000000000000
 40       0.000000000000
 41      -0.000000000000
 42      -0.000000000000
 43       0.000000000000
 44      -0.000000000000
 45       0.000000000000
 46       0.000000000000
 47       0.000000000000
 48       0.000000000000
 49      -0.000000000000
 50       0.000000000000
 51      -0.000000000000
 52       0.000000000000
 53       0.000000000000
 54       0.000000000000
 55      -0.000000000000
 56      -0.002377152930
 57      -0.000000000000
 58       0.000000000000
 59      -0.000000000000
 60       0.000000000000
 61       0.000000000000
 62      -0.000000000000
 63      -0.005889283869
 64       0.000000000000
 65       0.000000000000
 66       0.000000000000
 67       0.000000000000
 68      -0.000000000000
 69       0.000000000000
 70      -0.000983433222
 71      -0.000000000000
 72       0.000000000000
 73      -0.000000000000
 74      -0.000000000000
 75       0.000000000000
 76      -0.000000000000
 77      -0.000000000000
 78       0.000000000000
 79       0.000000000000
 80      -0.000000000000
 81      -0.000000000000
 82      -0.000000000000
 83      -0.000000000000
 84       0.000000000000
 Sym=     1a
 Ene= -2.65600215172578E+00
 Spin= Alpha
 Occup= 1.000000
  1      -0.000000000000
  2       0.000000000000
  3      -0.000000000000
  4       0.000000000000
  5       0.000000000000
  6      -0.000000000000
  7       0.000000000000
  8       0.000000000000
  9       0.000000000000
 10      -0.000000000000
 11       0.000000000000
 12      -0.000000000000
 13      -0.000000000000
 14      -0.367331363884
 15      -0.000000000000
 16      -0.000000000000
 17       0.999649905979
 18       0.000000000000
 19       0.000000000000
 20       0.104720886858
 21      -0.000000000000
 22      -0.000000000000
 23      -0.001608185801
 24       0.000000000000
 25       0.000000000000
 26       0.004352542789
 27      -0.000000000000
 28       0.000000000000
 29      -0.001131672682
 30      -0.000000000000
 31      -0.000000000000
 32       0.000000000000
 33      -0.000000000000
 34       0.000000000000
 35       0.000000000000
 36       0.000000000000
 37      -0.000000000000
 38      -0.000000000000
 39      -0.000000000000
 40      -0.000000000000
 41       0.000000000000
 42       0.000000000000
 43      -0.000000000000
 44      -0.000000000000
 45      -0.000000000000
 46      -0.000000000000
 47      -0.000000000000
 48       0.000000000000
 49       0.000000000000
 50       0.000000000000
 51       0.000000000000
 52       0.000000000000
 53       0.000000000000
 54       0.000000000000
 55      -0.000405614372
 56       0.000000000000
 57      -0.000000000000
 58      -0.000000000000
 59       0.000000000000
 60      -0.000000000000
 61      -0.000000000000
 62      -0.000933539118
 63       0.000000000000
 64       0.000000000000
 65       0.000000000000
 66      -0.000000000000
 67       0.000000000000
 68       0.000000000000
 69      -0.000464465303
 70      -0.000000000000
 71      -0.000000000000
 72      -0.000000000000
 73       0.000000000000
 74       0.000000000000
 75      -0.000000000000
 76       0.000000000000
 77      -0.000000000000
 78      -0.000000000000
 79       0.000000000000
 80       0.000000000000
 81       0.000000000000
 82       0.000000000000
 83       0.000000000000
 84       0.000000000000
 Sym=     1a
 Ene= -4.88264645888839E-01
 Spin= Alpha
 Occup= 1.000000
  1      -0.000000000000
  2       0.000000000000
  3      -0.000000000000
  4       0.000000000000
  5       0.000000000000
  6      -0.000000000000
  7      -0.000000000000
  8       0.000000000000
  9      -0.000000000000
 10       0.000000000000
 11      -0.000000000000
 12       0.000000000000
 13       0.000000000000
 14      -0.000000000000
 15      -0.000000000000
 16       0.000000000000
 17       0.000000000000
 18      -0.000000000000
 19       0.000000000000
 20       0.000000000000
 21      -0.000000000000
 22      -0.000000000000
 23      -0.000000000000
 24       0.000000000000
 25       0.000000000000
 26       0.000000000000
 27       0.000000000000
 28      -0.000000000000
 29      -0.000000000000
 30       0.000000000000
 31       0.000000000000
 32       0.000000000000
 33       0.000000000000
 34      -0.586540331422
 35      -0.000000000000
 36      -0.000000000000
 37      -0.000000000000
 38      -0.000000000000
 39      -0.326163458477
 40       0.000000000000
 41       0.000000000000
 42       0.000000000000
 43       0.000000000000
 44      -0.249499943430
 45      -0.000000000000
 46      -0.000000000000
 47      -0.000000000000
 48      -0.000000000000
 49      -0.111595147533
 50       0.000000000000
 51       0.000000000000
 52      -0.000000000000
 53       0.000000000000
 54      -0.010039904653
 55       0.000000000000
 56      -0.000000000000
 57      -0.000000000000
 58       0.000000000000
 59      -0.000000000000
 60      -0.000000000000
 61       0.000000000000
 62      -0.000000000000
 63      -0.000000000000
 64      -0.000000000000
 65       0.000000000000
 66       0.000000000000
 67      -0.000000000000
 68       0.000000000000
 69      -0.000000000000
 70       0.000000000000
 71       0.000000000000
 72      -0.000000000000
 73      -0.000000000000
 74       0.000000000000
 75      -0.000000000000
 76       0.000000000000
 77      -0.000000000000
 78       0.000000000000
 79       0.000000000000
 80       0.004548707602
 81      -0.000000000000
 82       0.000000000000
 83      -0.000000000000
 84       0.000000000000
 Sym=     1a
 Ene= -4.88264645886104E-01
 Spin= Alpha
 Occup= 1.000000
  1       0.000000000000
  2       0.000000000000
  3      -0.000000000000
  4       0.000000000000
  5      -0.000000000000
  6       0.000000000000
  7      -0.000000000000
  8       0.000000000000
  9      -0.000000000000
 10       0.000000000000
 11      -0.000000000000
 12       0.000000000000
 13       0.000000000000
 14       0.000000000000
 15      -0.000000000000
 16      -0.000000000000
 17       0.000000000000
 18       0.000000000000
 19       0.000000000000
 20      -0.000000000000
 21      -0.000000000000
 22      -0.000000000000
 23       0.000000000000
 24      -0.000000000000
 25       0.000000000000
 26       0.000000000000
 27       0.000000000000
 28      -0.000000000000
 29      -0.000000000000
 30       0.000000000000
 31       0.000000000000
 32      -0.000000000000
 33      -0.586540331420
 34      -0.000000000000
 35       0.000000000000
 36      -0.000000000000
 37       0.000000000000
 38      -0.326163458476
 39      -0.000000000000
 40       0.000000000000
 41       0.000000000000
 42       0.000000000000
 43      -0.249499943431
 44       0.000000000000
 45       0.000000000000
 46       0.000000000000
 47      -0.000000000000
 48      -0.111595147535
 49       0.000000000000
 50      -0.000000000000
 51      -0.000000000000
 52      -0.000000000000
 53      -0.010039904653
 54      -0.000000000000
 55       0.000000000000
 56       0.000000000000
 57      -0.000000000000
 58       0.000000000000
 59      -0.000000000000
 60       0.000000000000
 61       0.000000000000
 62       0.000000000000
 63      -0.000000000000
 64       0.000000000000
 65       0.000000000000
 66      -0.000000000000
 67      -0.000000000000
 68       0.000000000000
 69       0.000000000000
 70       0.000000000000
 71       0.000000000000
 72      -0.000000000000
 73      -0.000000000000
 74      -0.000000000000
 75       0.000000000000
 76      -0.000000000000
 77       0.000000000000
 78       0.000000000000
 79       0.004548707602
 80      -0.000000000000
 81       0.000000000000
 82      -0.000000000000
 83      -0.000000000000
 84       0.000000000000
 Sym=     1a
 Ene= -4.51259720489294E-01
 Spin= Alpha
 Occup= 1.000000
  1       0.001621238500
  2       0.001179779945
  3      -0.000280490026
  4      -0.005115990037
  5      -0.007090615023
  6       0.002648462912
  7       0.013777347607
  8       0.007160559872
  9      -0.009383950253
 10      -0.002440934651
 11      -0.000774717454
 12      -0.000000000000
 13       0.000000000000
 14       0.000000000000
 15       0.000000000000
 16       0.000000000000
 17      -0.000000000000
 18      -0.000000000000
 19      -0.000000000000
 20       0.000000000000
 21       0.000000000000
 22       0.000000000000
 23      -0.000000000000
 24       0.000000000000
 25      -0.000000000000
 26      -0.000000000000
 27      -0.000000000000
 28       0.000000000000
 29       0.000000000000
 30       0.580555748750
 31      -0.000000000000
 32       0.000000000000
 33       0.000000000000
 34       0.000000000000
 35       0.323497719792
 36       0.000000000000
 37      -0.000000000000
 38       0.000000000000
 39       0.000000000000
 40       0.253286964774
 41      -0.000000000000
 42       0.000000000000
 43       0.000000000000
 44      -0.000000000000
 45       0.120638451891
 46       0.000000000000
 47      -0.000000000000
 48       0.000000000000
 49      -0.000000000000
 50       0.013571889673
 51       0.000000000000
 52      -0.000000000000
 53       0.000000000000
 54       0.000000000000
 55      -0.000000000000
 56       0.000000000000
 57      -0.000000000000
 58       0.000000000000
 59       0.000000000000
 60      -0.000000000000
 61       0.000000000000
 62       0.000000000000
 63      -0.000000000000
 64      -0.000000000000
 65       0.000000000000
 66      -0.000000000000
 67       0.000000000000
 68      -0.000000000000
 69      -0.000000000000
 70      -0.000000000000
 71       0.000000000000
 72       0.000000000000
 73       0.000000000000
 74       0.000000000000
 75      -0.000000000000
 76      -0.001787633832
 77      -0.000000000000
 78      -0.000000000000
 79      -0.000000000000
 80      -0.000000000000
 81       0.000000000000
 82      -0.000000000000
 83      -0.000000000000
 84       0.000000000000
 Sym=     1a
 Ene= -4.12507102152655E-01
 Spin= Alpha
 Occup= 1.000000
  1      -0.000000000000
  2       0.000000000000
  3      -0.000000000000
  4      -0.000000000000
  5       0.000000000000
  6      -0.000000000000
  7       0.000000000000
  8      -0.000000000000
  9       0.000000000000
 10      -0.000000000000
 11       0.000000000000
 12       0.000000000000
 13      -0.000000000000
 14      -0.000000000000
 15      -0.000000000000
 16      -0.000000000000
 17       0.000000000000
 18       0.000000000000
 19       0.000000000000
 20      -0.000000000000
 21      -0.000000000000
 22      -0.000000000000
 23       0.000000000000
 24      -0.000000000000
 25       0.000000000000
 26       0.000000000000
 27       0.000000000000
 28      -0.000000000000
 29      -0.000000000000
 30      -0.000000000000
 31       0.000000000000
 32      -0.572975073875
 33       0.000000000000
 34      -0.000000000000
 35      -0.000000000000
 36      -0.000000000000
 37      -0.318742813804
 38      -0.000000000000
 39      -0.000000000000
 40      -0.000000000000
 41       0.000000000000