
                                 *****************
                                 * O   R   C   A *
                                 *****************

           --- An Ab Initio, DFT and Semiempirical electronic structure package ---

                  #######################################################
                  #                        -***-                        #
                  #  Department of molecular theory and spectroscopy    #
                  #              Directorship: Frank Neese              #
                  # Max Planck Institute for Chemical Energy Conversion #
                  #                  D-45470 Muelheim/Ruhr              #
                  #                       Germany                       #
                  #                                                     #
                  #                  All rights reserved                #
                  #                        -***-                        #
                  #######################################################


                         Program Version 4.0.1.2 - RELEASE -


 With contributions from (in alphabetic order):
   Daniel Aravena         : Magnetic Properties
   Michael Atanasov       : Ab Initio Ligand Field Theory
   Ute Becker             : Parallelization
   Martin Brehm           : Molecular dynamics
   Dmytro Bykov           : SCF Hessian
   Vijay G. Chilkuri      : MRCI spin determinant printing
   Dipayan Datta          : RHF DLPNO-CCSD density
   Achintya Kumar Dutta   : EOM-CC, STEOM-CC
   Dmitry Ganyushin       : Spin-Orbit,Spin-Spin,Magnetic field MRCI
   Yang Guo               : DLPNO-NEVPT2, CIM, IAO-localization
   Andreas Hansen         : Spin unrestricted coupled pair/coupled cluster methods
   Lee Huntington         : MR-EOM, pCC
   Robert Izsak           : Overlap fitted RIJCOSX, COSX-SCS-MP3, EOM
   Christian Kollmar      : KDIIS, OOCD, Brueckner-CCSD(T), CCSD density
   Simone Kossmann        : Meta GGA functionals, TD-DFT gradient, OOMP2, MP2 Hessian
   Martin Krupicka        : AUTO-CI
   Dagmar Lenk            : GEPOL surface
   Dimitrios Liakos       : Extrapolation schemes; parallel MDCI
   Dimitrios Manganas     : ROCIS; embedding schemes
   Dimitrios Pantazis     : SARC Basis sets
   Taras Petrenko         : DFT Hessian,TD-DFT gradient, ASA, ECA, R-Raman, ABS, FL, XAS/XES, NRVS
   Peter Pinski           : DLPNO-MP2
   Christoph Reimann      : Effective Core Potentials
   Marius Retegan         : Local ZFS, SOC
   Christoph Riplinger    : Optimizer, TS searches, QM/MM, DLPNO-CCSD(T), (RO)-DLPNO pert. Triples
   Tobias Risthaus        : Range-separated hybrids, TD-DFT gradient, RPA, STAB
   Michael Roemelt        : Restricted open shell CIS
   Masaaki Saitow         : Open-shell DLPNO
   Barbara Sandhoefer     : DKH picture change effects
   Kantharuban Sivalingam : CASSCF convergence, NEVPT2, FIC-MRCI
   Georgi Stoychev        : AutoAux
   Boris Wezisla          : Elementary symmetry handling
   Frank Wennmohs         : Technical directorship


 We gratefully acknowledge several colleagues who have allowed us to
 interface, adapt or use parts of their codes:
   Stefan Grimme, W. Hujo, H. Kruse,             : VdW corrections, initial TS optimization,
                  C. Bannwarth                     DFT functionals, gCP, sTDA/sTD-DF
   Ed Valeev                                     : LibInt (2-el integral package), F12 methods
   Garnet Chan, S. Sharma, J. Yang, R. Olivares  : DMRG
   Ulf Ekstrom                                   : XCFun DFT Library
   Mihaly Kallay                                 : mrcc  (arbitrary order and MRCC methods)
   Andreas Klamt, Michael Diedenhofen            : otool_cosmo (COSMO solvation model)
   Jiri Pittner, Ondrej Demel                    : Mk-CCSD
   Frank Weinhold                                : gennbo (NPA and NBO analysis)
   Christopher J. Cramer and Donald G. Truhlar   : smd solvation model


 Your calculation uses the libint2 library for the computation of 2-el integrals
 For citations please refer to: http://libint.valeyev.net

 This ORCA versions uses:
   CBLAS   interface :  Fast vector & matrix operations
   LAPACKE interface :  Fast linear algebra routines
   SCALAPACK package :  Parallel linear algebra routines




*****************************************
The coordinations will be read from file: ../../../../chem_database/Be.xyz
*****************************************


Your calculation utilizes the basis: cc-pVQZ 
       H, B-Ne : Obtained from the ccRepo (grant-hill.group.shef.ac.uk/ccrepo) Feb. 2017
                 T. H. Dunning, Jr., J. Chem. Phys. 90, 1007 (1989)
            He : Obtained from the ccRepo (grant-hill.group.shef.ac.uk/ccrepo) Feb. 2017
                 D. E. Woon, T. H. Dunning, Jr., J. Chem. Phys. 100, 2975 (1994)
  Li-Be, Na-Mg : Obtained from the ccRepo (grant-hill.group.shef.ac.uk/ccrepo) Feb. 2017
                 B. P. Prascher, D. E. Woon, K. A. Peterson, T. H. Dunning, Jr., A. K. Wilson, Theor. Chem. Acc. 128, 69 (2011)
         Al-Ar : Obtained from the ccRepo (grant-hill.group.shef.ac.uk/ccrepo) Feb. 2017
                 D. E. Woon, T. H. Dunning, Jr., J. Chem. Phys. 98, 1358 (1993)
            Ca : Obtained from the Peterson Research Group Website (tyr0.chem.wsu.edu/~kipeters) Feb. 2017
                 J. Koput, K. A. Peterson, J. Phys. Chem. 106, 9595 (2002)
         Sc-Zn : Obtained from the ccRepo (grant-hill.group.shef.ac.uk/ccrepo) Feb. 2017
                 N. B. Balabanov, K. A. Peterson, J. Chem. Phys. 123, 064107 (2005)
                 N. B. Balabanov, K. A. Peterson, J. Chem. Phys. 125, 074110 (2006)
         Ga-Kr : Obtained from the ccRepo (grant-hill.group.shef.ac.uk/ccrepo) Feb. 2017
                 A. K. Wilson, D. E. Woon, K. A. Peterson, T. H. Dunning, Jr., J. Chem. Phys. 110, 7667 (1999)

================================================================================
                                        WARNINGS
                       Please study these warnings very carefully!
================================================================================

Warning: TCutStore was < 0. Adjusted to Thresh (uncritical)

INFO   : the flag for use of LIBINT has been found!

================================================================================
                                       INPUT FILE
================================================================================
NAME = mol.inp
|  1> # ================================================================
|  2> # Orca input file
|  3> # ================================================================
|  4> ! HF cc-pVQZ VeryTightSCF UseSym
|  5> 
|  6> ! PAL4
|  7> 
|  8> %scf
|  9>   STABPerform true
| 10> #  STABRestartUHFifUnstable true
| 11> end
| 12> 
| 13> 
| 14> 
| 15> * xyzfile 0 1 ../../../../chem_database/Be.xyz
| 16> 
| 17>                          ****END OF INPUT****
================================================================================

------------------------------------------------------------------------------
                            SYMMETRY HANDLING SETUP
------------------------------------------------------------------------------

------------------
SYMMETRY DETECTION
------------------
Preparing Data                    ... done
Detection Threshold:    SymThresh ... 1.0000e-04

Point Group will now be determined:
Moving molecule to center of mass ... done

POINT GROUP                       ... Kh

The coordinates will now be cleaned:
Structure cleanup requested       ... yes
Selected point group              ... Kh
Cleaning Tolerance      SymThresh ... 1.0000e-04

Cleaning coordinates              ... done

-----------------------------------------------
SYMMETRY-PERFECTED CARTESIAN COORDINATES (A.U.)
-----------------------------------------------
Warning (ORCA_SYM): Coordinates were not cleaned so far!

------------------
SYMMETRY REDUCTION
------------------
ORCA supports only abelian point groups.
It is now checked, if the determined point group is supported:
Point Group ( Kh    ) is          ... NOT supported
Reducing to abelian subgroup      ... D2h

(Re)building abelian point group:
Creating Character Table          ... done
Making direct product table       ... done
Constructing symmetry operations  ... done
Creating atom transfer table      ... done
Creating asymmetric unit          ... done

----------------------
ASYMMETRIC UNIT IN D2h
----------------------
  #  AT     MASS              COORDS (A.U.)             BAS
   0 Be   9.0120   0.00000000   0.00000000   0.00000000   0

----------------------
SYMMETRY ADAPTED BASIS
----------------------
The coefficients for the symmetry adapted linear combinations (SALCS)
of basis functions will now be computed:
Number of basis functions         ...    55
Preparing memory                  ... done
Constructing Gamma(red)           ... done
Reducing Gamma(red)               ... done
Constructing SALCs                ... done
Checking SALC integrity           ... nothing suspicious
Normalizing SALCs                 ... done

Storing the symmetry object:
Symmetry file                     ... mol.sym.tmp
Writing symmetry information      ... done

                       ****************************
                       * Single Point Calculation *
                       ****************************

---------------------------------
CARTESIAN COORDINATES (ANGSTROEM)
---------------------------------
  Be     0.000000    0.000000    0.000000

----------------------------
CARTESIAN COORDINATES (A.U.)
----------------------------
  NO LB      ZA    FRAG     MASS         X           Y           Z
   0 Be    4.0000    0     9.012    0.000000    0.000000    0.000000

--------------------------------
INTERNAL COORDINATES (ANGSTROEM)
--------------------------------
 Be     0   0   0     0.000000000000     0.00000000     0.00000000

---------------------------
INTERNAL COORDINATES (A.U.)
---------------------------
 Be     0   0   0     0.000000000000     0.00000000     0.00000000

---------------------
BASIS SET INFORMATION
---------------------
There are 1 groups of distinct atoms

 Group   1 Type Be  : 21s6p3d2f1g contracted to 5s4p3d2f1g pattern {99111/3111/111/11/1}

Atom   0Be   basis set group =>   1


           ************************************************************
           *        Program running with 4 parallel MPI-processes     *
           *              working on a common directory               *
           ************************************************************
------------------------------------------------------------------------------
                           ORCA GTO INTEGRAL CALCULATION
------------------------------------------------------------------------------

                         BASIS SET STATISTICS AND STARTUP INFO

 # of primitive gaussian shells          ...   33
 # of primitive gaussian functions       ...   77
 # of contracted shells                  ...   15
 # of contracted basis functions         ...   55
 Highest angular momentum                ...    4
 Maximum contraction depth               ...    9
 Integral package used                   ... LIBINT
 Integral threshhold            Thresh   ...  1.000e-12
 Primitive cut-off              TCut     ...  1.000e-14


------------------------------ INTEGRAL EVALUATION ----------------------------


 * One electron integrals 
 Pre-screening matrix                    ... done
 Shell pair data                         ... done (   0.000 sec)



           ************************************************************
           *        Program running with 4 parallel MPI-processes     *
           *              working on a common directory               *
           ************************************************************
-------------------------------------------------------------------------------
                                 ORCA SCF
-------------------------------------------------------------------------------

------------
SCF SETTINGS
------------
Hamiltonian:
 Ab initio Hamiltonian  Method          .... Hartree-Fock(GTOs)


General Settings:
 Integral files         IntName         .... mol
 Hartree-Fock type      HFTyp           .... RHF
 Total Charge           Charge          ....    0
 Multiplicity           Mult            ....    1
 Number of Electrons    NEL             ....    4
 Basis Dimension        Dim             ....   55
 Nuclear Repulsion      ENuc            ....      0.0000000000 Eh

 Symmetry handling      UseSym         .... ON
 Point group                           .... D2h
 Used point group                      .... D2h
 Number of irreps                      .... 8
   Irrep   Ag has   14 symmetry adapted basis functions (ofs=   0)
   Irrep  B1g has    5 symmetry adapted basis functions (ofs=  14)
   Irrep  B2g has    5 symmetry adapted basis functions (ofs=  19)
   Irrep  B3g has    5 symmetry adapted basis functions (ofs=  24)
   Irrep   Au has    2 symmetry adapted basis functions (ofs=  29)
   Irrep  B1u has    8 symmetry adapted basis functions (ofs=  31)
   Irrep  B2u has    8 symmetry adapted basis functions (ofs=  39)
   Irrep  B3u has    8 symmetry adapted basis functions (ofs=  47)

Convergence Acceleration:
 DIIS                   CNVDIIS         .... on
   Start iteration      DIISMaxIt       ....    12
   Startup error        DIISStart       ....  0.200000
   # of expansion vecs  DIISMaxEq       ....     5
   Bias factor          DIISBfac        ....   1.050
   Max. coefficient     DIISMaxC        ....  10.000
 Newton-Raphson         CNVNR           .... off
 SOSCF                  CNVSOSCF        .... on
   Start iteration      SOSCFMaxIt      ....   150
   Startup grad/error   SOSCFStart      ....  0.003300
 Level Shifting         CNVShift        .... on
   Level shift para.    LevelShift      ....    0.2500
   Turn off err/grad.   ShiftErr        ....    0.0010
 Zerner damping         CNVZerner       .... off
 Static damping         CNVDamp         .... on
   Fraction old density DampFac         ....    0.7000
   Max. Damping (<1)    DampMax         ....    0.9800
   Min. Damping (>=0)   DampMin         ....    0.0000
   Turn off err/grad.   DampErr         ....    0.1000
 Fernandez-Rico         CNVRico         .... off

SCF Procedure:
 Maximum # iterations   MaxIter         ....   125
 SCF integral mode      SCFMode         .... Direct
   Integral package                     .... LIBINT
 Reset frequeny         DirectResetFreq ....    20
 Integral Threshold     Thresh          ....  1.000e-12 Eh
 Primitive CutOff       TCut            ....  1.000e-14 Eh

Convergence Tolerance:
 Convergence Check Mode ConvCheckMode   .... Total+1el-Energy
 Convergence forced     ConvForced      .... 0
 Energy Change          TolE            ....  1.000e-09 Eh
 1-El. energy change                    ....  1.000e-06 Eh
 Orbital Gradient       TolG            ....  2.000e-06
 Orbital Rotation angle TolX            ....  2.000e-06
 DIIS Error             TolErr          ....  1.000e-08


Diagonalization of the overlap matrix:
Smallest eigenvalue                        ... 6.752e-03
Time for diagonalization                   ...    0.012 sec
Threshold for overlap eigenvalues          ... 1.000e-08
Number of eigenvalues below threshold      ... 0
Time for construction of square roots      ...    0.001 sec
Producing symmetrization matrix            ... done (   0.000 sec)
Total time needed                          ...    0.013 sec

-------------------
DFT GRID GENERATION
-------------------

General Integration Accuracy     IntAcc      ...  4.340
Radial Grid Type                 RadialGrid  ... Gauss-Chebyshev
Angular Grid (max. acc.)         AngularGrid ... Lebedev-110
Angular grid pruning method      GridPruning ... 3 (G Style)
Weight generation scheme         WeightScheme... Becke
Basis function cutoff            BFCut       ...    1.0000e-12
Integration weight cutoff        WCut        ...    1.0000e-14
Grids for H and He will be reduced by one unit

# of grid points (after initial pruning)     ...   1678 (   0.0 sec)
# of grid points (after weights+screening)   ...   1678 (   0.0 sec)
Grid point division into batches done        ...    0.0 sec
Reduced shell lists constructed in    0.0 sec

Total number of grid points                  ...     1678
Total number of batches                      ...       27
Average number of points per batch           ...       62
Average number of grid points per atom       ...     1678
Average number of shells per batch           ...    10.12 (67.50%)
Average number of basis functions per batch  ...    40.62 (73.86%)
Average number of large shells per batch     ...     9.25 (91.36%)
Average number of large basis fcns per batch ...    36.75 (90.46%)
Maximum spatial batch extension              ...  21.83, 39.91, 39.91 au
Average spatial batch extension              ...   4.79,  6.54,  8.25 au

Time for grid setup =    0.025 sec

------------------------------
INITIAL GUESS: MODEL POTENTIAL
------------------------------
Loading Hartree-Fock densities                     ... done
Calculating cut-offs                               ... done
Setting up the integral package                    ... done
Initializing the effective Hamiltonian             ... done
Starting the Coulomb interaction                   ... done (   0.0 sec)
Reading the grid                                   ... done
Mapping shells                                     ... done
Starting the XC term evaluation                    ... done (   0.0 sec)
done (   0.0 sec)
Diagonalizing the Hamiltonian                      ... done (   0.0 sec)
Back transforming the eigenvectors                 ... done (   0.0 sec)
Now organizing SCF variables                       ... done
The symmetry of the initial guess is 1-Ag
Irrep occupations for operator 0
    Ag -    2
   B1g -    0
   B2g -    0
   B3g -    0
    Au -    0
   B1u -    0
   B2u -    0
   B3u -    0
                      ------------------
                      INITIAL GUESS DONE (   0.2 sec)
                      ------------------
--------------
SCF ITERATIONS
--------------
ITER       Energy         Delta-E        Max-DP      RMS-DP      [F,P]     Damp
               ***  Starting incremental Fock matrix formation  ***
  0    -14.5689013805   0.000000000000 0.05838839  0.00127058  0.0781451 0.7000
  1    -14.5700514921  -0.001150111609 0.04253270  0.00093661  0.0572073 0.7000
                               ***Turning on DIIS***
  2    -14.5708899636  -0.000838471454 0.10068732  0.00223731  0.0412968 0.0000
  3    -14.5726692303  -0.001779266665 0.00468895  0.00015325  0.0029889 0.0000
                      *** Initiating the SOSCF procedure ***
                           *** Shutting down DIIS ***
                      *** Re-Reading the Fockian *** 
                      *** Removing any level shift *** 
ITER      Energy       Delta-E        Grad      Rot      Max-DP    RMS-DP
  4    -14.57322706  -0.0005578341  0.000527  0.000527  0.004167  0.000104
               *** Restarting incremental Fock matrix formation ***
  5    -14.57296804   0.0002590291  0.000119  0.000268  0.001347  0.000030
  6    -14.57296812  -0.0000000834  0.000036  0.000117  0.000651  0.000014
  7    -14.57296813  -0.0000000085  0.000001  0.000001  0.000014  0.000000
                 **** Energy Check signals convergence ****
              ***Rediagonalizing the Fockian in SOSCF/NRSCF***

               *****************************************************
               *                     SUCCESS                       *
               *           SCF CONVERGED AFTER   8 CYCLES          *
               *****************************************************


------------------------------------------------------------------------------
                          SCF STABILITY ANALYSIS                              
------------------------------------------------------------------------------


                       ****Iteration    0****

   Memory handling for direct AO based CIS:
   Memory per vector needed      ...     1 MB
   Memory needed                 ...     0 MB
   Memory available              ...  1024 MB
   Number of vectors per batch   ...  1024
   Number of batches             ...     1
   Time for densities:     0.000
   Using LibInt in JK Direct
   Time for K (Direct):     0.098
   Time for Sigma-Completion:     0.000
   Lowest Energy          :     0.214115729898
   Maximum Energy change  :     0.306380314705 (vector 2)
   Maximum residual norm  :     0.007175010381

                       ****Iteration    1****
   Time for densities:     0.000
   Using LibInt in JK Direct
   Time for K (Direct):     0.094
   Time for Sigma-Completion:     0.000
   Lowest Energy          :     0.200136385262
   Maximum Energy change  :     0.013979344637 (vector 0)
   Maximum residual norm  :     0.000164549297

                       ****Iteration    2****
   Time for densities:     0.000
   Using LibInt in JK Direct
   Time for K (Direct):     0.093
   Time for Sigma-Completion:     0.000
   Lowest Energy          :     0.200111823504
   Maximum Energy change  :     0.000024561758 (vector 0)

         *** CONVERGENCE OF ENERGIES REACHED ***

----------------------------- 
SCF STABILITY ANALYSIS RESULT 
----------------------------- 

RHF/RKS->UHF/UKS - triplet - external

   Root    Eigenvalue (au) 
     0       0.200112 
     1       0.306118 
     2       0.306118 

Stability Analysis indicates a stable HF/KS wave function.


Total time for performing the stability analysis:     0.289sec


----------------
TOTAL SCF ENERGY
----------------

Total Energy       :          -14.57296813 Eh            -396.55062 eV

Components:
Nuclear Repulsion  :            0.00000000 Eh               0.00000 eV
Electronic Energy  :          -14.57296813 Eh            -396.55062 eV
One Electron Energy:          -19.06214704 Eh            -518.70739 eV
Two Electron Energy:            4.48917891 Eh             122.15677 eV

Virial components:
Potential Energy   :          -29.14593265 Eh            -793.10115 eV
Kinetic Energy     :           14.57296452 Eh             396.55052 eV
Virial Ratio       :            2.00000025


---------------
SCF CONVERGENCE
---------------

  Last Energy change         ...   -4.5866e-12  Tolerance :   1.0000e-09
  Last MAX-Density change    ...    2.9721e-06  Tolerance :   1.0000e-08
  Last RMS-Density change    ...    6.4278e-08  Tolerance :   1.0000e-09
  Last Orbital Gradient      ...    2.7500e-07  Tolerance :   2.0000e-06
  Last Orbital Rotation      ...    3.2784e-07  Tolerance :   2.0000e-06

             **** THE GBW FILE WAS UPDATED (mol.gbw) ****
             **** DENSITY FILE WAS UPDATED (mol.scfp.tmp) ****
             **** ENERGY FILE WAS UPDATED (mol.en.tmp) ****
----------------
ORBITAL ENERGIES
----------------

  NO   OCC          E(Eh)            E(eV)    Irrep 
   0   2.0000      -4.732635      -128.7815    1-Ag
   1   2.0000      -0.309260        -8.4154    2-Ag
   2   0.0000       0.044977         1.2239    1-B2u
   3   0.0000       0.044977         1.2239    1-B3u
   4   0.0000       0.044977         1.2239    1-B1u
   5   0.0000       0.133194         3.6244    3-Ag
   6   0.0000       0.201664         5.4876    2-B1u
   7   0.0000       0.201664         5.4876    2-B3u
   8   0.0000       0.201664         5.4876    2-B2u
   9   0.0000       0.491201        13.3663    4-Ag
  10   0.0000       0.491201        13.3663    5-Ag
  11   0.0000       0.491201        13.3663    1-B1g
  12   0.0000       0.491201        13.3663    1-B3g
  13   0.0000       0.491201        13.3663    1-B2g
  14   0.0000       0.695007        18.9121    3-B1u
  15   0.0000       0.695007        18.9121    3-B2u
  16   0.0000       0.695007        18.9121    3-B3u
  17   0.0000       0.731987        19.9184    6-Ag
  18   0.0000       0.938526        25.5386    4-B2u
  19   0.0000       0.938526        25.5386    4-B1u
  20   0.0000       0.938526        25.5386    4-B3u
  21   0.0000       0.938526        25.5386    5-B2u
  22   0.0000       0.938526        25.5386    5-B1u
  23   0.0000       0.938526        25.5386    5-B3u
  24   0.0000       0.938526        25.5386    1-Au
  25   0.0000       1.592942        43.3462    7-Ag
  26   0.0000       1.592942        43.3462    8-Ag
  27   0.0000       1.592942        43.3462    2-B1g
  28   0.0000       1.592942        43.3462    2-B2g
  29   0.0000       1.592942        43.3462    2-B3g
  30   0.0000       2.122008        57.7428    9-Ag
  31   0.0000       2.122008        57.7428    3-B1g
  32   0.0000       2.122008        57.7428    3-B3g
  33   0.0000       2.122008        57.7428    3-B2g
  34   0.0000       2.122008        57.7428   10-Ag
  35   0.0000       2.122008        57.7428   11-Ag
  36   0.0000       2.122008        57.7428    4-B1g
  37   0.0000       2.122008        57.7428    4-B2g
  38   0.0000       2.122008        57.7428    4-B3g
  39   0.0000       2.437972        66.3406    6-B1u
  40   0.0000       2.437972        66.3406    6-B2u
  41   0.0000       2.437972        66.3406    6-B3u
  42   0.0000       2.512217        68.3609    7-B2u
  43   0.0000       2.512217        68.3609    7-B1u
  44   0.0000       2.512217        68.3609    7-B3u
  45   0.0000       2.512217        68.3609    8-B1u
  46   0.0000       2.512217        68.3609    8-B2u
  47   0.0000       2.512217        68.3609    8-B3u
  48   0.0000       2.512217        68.3609    2-Au
  49   0.0000       4.434455       120.6677   12-Ag
  50   0.0000       4.434455       120.6677   13-Ag
  51   0.0000       4.434455       120.6677    5-B1g
  52   0.0000       4.434455       120.6677    5-B2g
  53   0.0000       4.434455       120.6677    5-B3g
  54   0.0000       7.106612       193.3808   14-Ag

                    ********************************
                    * MULLIKEN POPULATION ANALYSIS *
                    ********************************

-----------------------
MULLIKEN ATOMIC CHARGES
-----------------------
   0 Be:   -0.000000
Sum of atomic charges:   -0.0000000

--------------------------------
MULLIKEN REDUCED ORBITAL CHARGES
--------------------------------
  0 Bes       :     4.000000  s :     4.000000
      pz      :     0.000000  p :     0.000000
      px      :     0.000000
      py      :     0.000000
      dz2     :     0.000000  d :     0.000000
      dxz     :     0.000000
      dyz     :     0.000000
      dx2y2   :     0.000000
      dxy     :     0.000000
      f0      :     0.000000  f :     0.000000
      f+1     :     0.000000
      f-1     :     0.000000
      f+2     :     0.000000
      f-2     :     0.000000
      f+3     :     0.000000
      f-3     :     0.000000
      g0      :     0.000000  g :     0.000000
      g+1     :     0.000000
      g-1     :     0.000000
      g+2     :     0.000000
      g-2     :     0.000000
      g+3     :     0.000000
      g-3     :     0.000000
      g+4     :     0.000000
      g-4     :     0.000000


                     *******************************
                     * LOEWDIN POPULATION ANALYSIS *
                     *******************************

----------------------
LOEWDIN ATOMIC CHARGES
----------------------
   0 Be:   -0.000000

-------------------------------
LOEWDIN REDUCED ORBITAL CHARGES
-------------------------------
  0 Bes       :     4.000000  s :     4.000000
      pz      :     0.000000  p :     0.000000
      px      :     0.000000
      py      :     0.000000
      dz2     :     0.000000  d :     0.000000
      dxz     :     0.000000
      dyz     :     0.000000
      dx2y2   :     0.000000
      dxy     :     0.000000
      f0      :     0.000000  f :     0.000000
      f+1     :     0.000000
      f-1     :     0.000000
      f+2     :     0.000000
      f-2     :     0.000000
      f+3     :     0.000000
      f-3     :     0.000000
      g0      :     0.000000  g :     0.000000
      g+1     :     0.000000
      g-1     :     0.000000
      g+2     :     0.000000
      g-2     :     0.000000
      g+3     :     0.000000
      g-3     :     0.000000
      g+4     :     0.000000
      g-4     :     0.000000


                      *****************************
                      * MAYER POPULATION ANALYSIS *
                      *****************************

  NA   - Mulliken gross atomic population
  ZA   - Total nuclear charge
  QA   - Mulliken gross atomic charge
  VA   - Mayer's total valence
  BVA  - Mayer's bonded valence
  FA   - Mayer's free valence

  ATOM       NA         ZA         QA         VA         BVA        FA
  0 Be     4.0000     4.0000    -0.0000    -0.0000     0.0000    -0.0000

  Mayer bond orders larger than 0.1


--------------------------
ATOM BASIS FOR ELEMENT Be
--------------------------
 NewGTO Be
 S 21
    1      14630.000000000000         0.000091999787
    2       2191.000000000000         0.000712998350
    3        498.200000000000         0.003734991357
    4        140.900000000000         0.015467964206
    5         45.860000000000         0.052873877644
    6         16.470000000000         0.145693662850
    7          6.319000000000         0.302680299567
    8          2.535000000000         0.404935062939
    9          1.035000000000         0.222386485375
   10      14630.000000000000         0.000000000131
   11       2191.000000000000         0.000000001002
   12        498.200000000000         0.000000005235
   13        140.900000000000         0.000000022025
   14         45.860000000000         0.000000075650
   15         16.470000000000         0.000000220552
   16          6.319000000000         0.000000491537
   17          2.535000000000         0.000000903754
   18          1.035000000000         0.000000934367
   19          0.252800000000         0.012911873786
   20          0.105200000000        -0.004647735828
   21          0.042610000000         0.001228115355
 S 21
    1      14630.000000000000         0.000000000734
    2       2191.000000000000         0.000000005692
    3        498.200000000000         0.000000029816
    4        140.900000000000         0.000000123481
    5         45.860000000000         0.000000422092
    6         16.470000000000         0.000001163072
    7          6.319000000000         0.000002416296
    8          2.535000000000         0.000003232595
    9          1.035000000000         0.000001775311
   10      14630.000000000000         0.000016999548
   11       2191.000000000000         0.000129996541
   12        498.200000000000         0.000678981934
   13        140.900000000000         0.002856923984
   14         45.860000000000         0.009812738907
   15         16.470000000000         0.028608238805
   16          6.319000000000         0.063758303547
   17          2.535000000000         0.117227880852
   18          1.035000000000         0.121198775196
   19          0.252800000000        -0.253225460834
   20          0.105200000000        -0.581840504789
   21          0.042610000000        -0.291952800512
 end
-------------------------------------------
RADIAL EXPECTATION VALUES <R**-3> TO <R**3>
-------------------------------------------
   0 :     0.000000    27.746951     3.681863     0.414992     0.232953     0.165340
   1 :     0.000000     1.055412     0.522526     2.649229     8.423813    31.378233
   2 :     0.091087     0.119942     0.285002     4.504054    23.889938   142.120798
   3 :     0.091087     0.119942     0.285002     4.504054    23.889938   142.120798
   4 :     0.091087     0.119942     0.285002     4.504054    23.889938   142.120798
   5 :     0.000000     0.329090     0.252680     5.406455    32.661295   210.171180
   6 :     0.227271     0.208907     0.351146     4.431575    25.999241   176.365543
   7 :     0.227271     0.208907     0.351146     4.431575    25.999241   176.365543
   8 :     0.227271     0.208907     0.351146     4.431575    25.999241   176.365543
   9 :     0.053270     0.125188     0.337999     3.171038    10.653900   188.316269
  10 :     0.053270     0.125188     0.337999     3.171038    10.653900   188.316269
  11 :     0.053270     0.125188     0.337999     3.171038    10.653900   188.316269
  12 :     0.053270     0.125188     0.337999     3.171038    10.653900   188.316269
  13 :     0.053270     0.125188     0.337999     3.171038    10.653900   188.316269
  14 :     0.577656     0.452669     0.541702     2.933616    12.648900    70.878399
  15 :     0.577656     0.452669     0.541702     2.933616    12.648900    70.878399
  16 :     0.577656     0.452669     0.541702     2.933616    12.648900    70.878399
  17 :     0.000000     1.866266     0.623946     3.048865    13.303940    73.492213
  18 :     0.040257     0.112326     0.328013     3.175477    10.480684   251.174183
  19 :     0.040257     0.112326     0.328013     3.175477    10.480684   251.174183
  20 :     0.040257     0.112326     0.328013     3.175477    10.480684   251.174183
  21 :     0.040257     0.112326     0.328013     3.175477    10.480684   251.174183
  22 :     0.040257     0.112326     0.328013     3.175477    10.480684   251.174183
  23 :     0.040257     0.112326     0.328013     3.175477    10.480684   251.174183
  24 :     0.040257     0.112326     0.328013     3.175477    10.480684   251.174183
  25 :     0.224102     0.327081     0.535674     2.192603     5.774655    90.477200
  26 :     0.224102     0.327081     0.535674     2.192603     5.774655    90.477200
  27 :     0.224102     0.327081     0.535674     2.192603     5.774655    90.477200
  28 :     0.224102     0.327081     0.535674     2.192603     5.774655    90.477200
  29 :     0.224102     0.327081     0.535674     2.192603     5.774655    90.477200
  30 :     0.086084     0.183600     0.416771     2.522214     6.656984   128.217110
  31 :     0.086084     0.183600     0.416771     2.522214     6.656984   128.217110
  32 :     0.086084     0.183600     0.416771     2.522214     6.656984   128.217110
  33 :     0.086084     0.183600     0.416771     2.522214     6.656984   128.217110
  34 :     0.086084     0.183600     0.416771     2.522214     6.656984   128.217110
  35 :     0.086084     0.183600     0.416771     2.522214     6.656984   128.217110
  36 :     0.086084     0.183600     0.416771     2.522214     6.656984   128.217110
  37 :     0.086084     0.183600     0.416771     2.522214     6.656984   128.217110
  38 :     0.086084     0.183600     0.416771     2.522214     6.656984   128.217110
  39 :     5.536076     2.066024     1.155120     1.545105     4.391970    19.792077
  40 :     5.536076     2.066024     1.155120     1.545105     4.391970    19.792077
  41 :     5.536076     2.066024     1.155120     1.545105     4.391970    19.792077
  42 :     0.194943     0.304189     0.522963     2.169722     5.448919   111.234742
  43 :     0.194943     0.304189     0.522963     2.169722     5.448919   111.234742
  44 :     0.194943     0.304189     0.522963     2.169722     5.448919   111.234742
  45 :     0.194943     0.304189     0.522963     2.169722     5.448919   111.234742
  46 :     0.194943     0.304189     0.522963     2.169722     5.448919   111.234742
  47 :     0.194943     0.304189     0.522963     2.169722     5.448919   111.234742
  48 :     0.194943     0.304189     0.522963     2.169722     5.448919   111.234742
  49 :     1.202021     0.964291     0.899763     1.405926     2.659964    33.846125
  50 :     1.202021     0.964291     0.899763     1.405926     2.659964    33.846125
  51 :     1.202021     0.964291     0.899763     1.405926     2.659964    33.846125
  52 :     1.202021     0.964291     0.899763     1.405926     2.659964    33.846125
  53 :     1.202021     0.964291     0.899763     1.405926     2.659964    33.846125
  54 :     0.000000    47.165762     3.682511     0.959968     2.332706    10.358259
-------
TIMINGS
-------

Total SCF time: 0 days 0 hours 0 min 1 sec 

Total time                  ....       1.902 sec
Sum of individual times     ....       1.873 sec  ( 98.5%)

Fock matrix formation       ....       1.399 sec  ( 73.5%)
Diagonalization             ....       0.003 sec  (  0.2%)
Density matrix formation    ....       0.000 sec  (  0.0%)
Population analysis         ....       0.002 sec  (  0.1%)
Initial guess               ....       0.131 sec  (  6.9%)
Orbital Transformation      ....       0.000 sec  (  0.0%)
Orbital Orthonormalization  ....       0.000 sec  (  0.0%)
DIIS solution               ....       0.003 sec  (  0.1%)
SOSCF solution              ....       0.021 sec  (  1.1%)
SCF Stability Analysis      ....       0.289 sec  ( 15.2%)

-------------------------   --------------------
FINAL SINGLE POINT ENERGY       -14.572968127175
-------------------------   --------------------


                            ***************************************
                            *     ORCA property calculations      *
                            ***************************************

                                    ---------------------
                                    Active property flags
                                    ---------------------
   (+) Dipole Moment


------------------------------------------------------------------------------
                       ORCA ELECTRIC PROPERTIES CALCULATION
------------------------------------------------------------------------------

Dipole Moment Calculation                       ... on
Quadrupole Moment Calculation                   ... off
Polarizability Calculation                      ... off
GBWName                                         ... mol.gbw
Electron density file                           ... mol.scfp.tmp
The origin for moment calculation is the CENTER OF MASS  = ( 0.000000,  0.000000  0.000000)

-------------
DIPOLE MOMENT
-------------
                                X             Y             Z
Electronic contribution:     -0.00000       0.00000      -0.00000
Nuclear contribution   :      0.00000       0.00000       0.00000
                        -----------------------------------------
Total Dipole Moment    :     -0.00000       0.00000      -0.00000
                        -----------------------------------------
Magnitude (a.u.)       :      0.00000
Magnitude (Debye)      :      0.00000


Timings for individual modules:

Sum of individual times         ...        3.308 sec (=   0.055 min)
GTO integral calculation        ...        1.174 sec (=   0.020 min)  35.5 %
SCF iterations                  ...        2.134 sec (=   0.036 min)  64.5 %
                             ****ORCA TERMINATED NORMALLY****
TOTAL RUN TIME: 0 days 0 hours 0 minutes 3 seconds 673 msec
