
                                 *****************
                                 * O   R   C   A *
                                 *****************

           --- An Ab Initio, DFT and Semiempirical electronic structure package ---

                  #######################################################
                  #                        -***-                        #
                  #  Department of molecular theory and spectroscopy    #
                  #              Directorship: Frank Neese              #
                  # Max Planck Institute for Chemical Energy Conversion #
                  #                  D-45470 Muelheim/Ruhr              #
                  #                       Germany                       #
                  #                                                     #
                  #                  All rights reserved                #
                  #                        -***-                        #
                  #######################################################


                         Program Version 4.0.1.2 - RELEASE -


 With contributions from (in alphabetic order):
   Daniel Aravena         : Magnetic Properties
   Michael Atanasov       : Ab Initio Ligand Field Theory
   Ute Becker             : Parallelization
   Martin Brehm           : Molecular dynamics
   Dmytro Bykov           : SCF Hessian
   Vijay G. Chilkuri      : MRCI spin determinant printing
   Dipayan Datta          : RHF DLPNO-CCSD density
   Achintya Kumar Dutta   : EOM-CC, STEOM-CC
   Dmitry Ganyushin       : Spin-Orbit,Spin-Spin,Magnetic field MRCI
   Yang Guo               : DLPNO-NEVPT2, CIM, IAO-localization
   Andreas Hansen         : Spin unrestricted coupled pair/coupled cluster methods
   Lee Huntington         : MR-EOM, pCC
   Robert Izsak           : Overlap fitted RIJCOSX, COSX-SCS-MP3, EOM
   Christian Kollmar      : KDIIS, OOCD, Brueckner-CCSD(T), CCSD density
   Simone Kossmann        : Meta GGA functionals, TD-DFT gradient, OOMP2, MP2 Hessian
   Martin Krupicka        : AUTO-CI
   Dagmar Lenk            : GEPOL surface
   Dimitrios Liakos       : Extrapolation schemes; parallel MDCI
   Dimitrios Manganas     : ROCIS; embedding schemes
   Dimitrios Pantazis     : SARC Basis sets
   Taras Petrenko         : DFT Hessian,TD-DFT gradient, ASA, ECA, R-Raman, ABS, FL, XAS/XES, NRVS
   Peter Pinski           : DLPNO-MP2
   Christoph Reimann      : Effective Core Potentials
   Marius Retegan         : Local ZFS, SOC
   Christoph Riplinger    : Optimizer, TS searches, QM/MM, DLPNO-CCSD(T), (RO)-DLPNO pert. Triples
   Tobias Risthaus        : Range-separated hybrids, TD-DFT gradient, RPA, STAB
   Michael Roemelt        : Restricted open shell CIS
   Masaaki Saitow         : Open-shell DLPNO
   Barbara Sandhoefer     : DKH picture change effects
   Kantharuban Sivalingam : CASSCF convergence, NEVPT2, FIC-MRCI
   Georgi Stoychev        : AutoAux
   Boris Wezisla          : Elementary symmetry handling
   Frank Wennmohs         : Technical directorship


 We gratefully acknowledge several colleagues who have allowed us to
 interface, adapt or use parts of their codes:
   Stefan Grimme, W. Hujo, H. Kruse,             : VdW corrections, initial TS optimization,
                  C. Bannwarth                     DFT functionals, gCP, sTDA/sTD-DF
   Ed Valeev                                     : LibInt (2-el integral package), F12 methods
   Garnet Chan, S. Sharma, J. Yang, R. Olivares  : DMRG
   Ulf Ekstrom                                   : XCFun DFT Library
   Mihaly Kallay                                 : mrcc  (arbitrary order and MRCC methods)
   Andreas Klamt, Michael Diedenhofen            : otool_cosmo (COSMO solvation model)
   Jiri Pittner, Ondrej Demel                    : Mk-CCSD
   Frank Weinhold                                : gennbo (NPA and NBO analysis)
   Christopher J. Cramer and Donald G. Truhlar   : smd solvation model


 Your calculation uses the libint2 library for the computation of 2-el integrals
 For citations please refer to: http://libint.valeyev.net

 This ORCA versions uses:
   CBLAS   interface :  Fast vector & matrix operations
   LAPACKE interface :  Fast linear algebra routines
   SCALAPACK package :  Parallel linear algebra routines




*****************************************
The coordinations will be read from file: ../../../../chem_database/Ti.xyz
*****************************************


Your calculation utilizes the basis: def2-QZVP
   F. Weigend and R. Ahlrichs, Phys. Chem. Chem. Phys. 7, 3297 (2005).

================================================================================
                                        WARNINGS
                       Please study these warnings very carefully!
================================================================================

Warning: TCutStore was < 0. Adjusted to Thresh (uncritical)

WARNING: your system is open-shell and RHF/RKS was chosen
  ===> : WILL SWITCH to UHF/UKS


INFO   : the flag for use of LIBINT has been found!

================================================================================
                                       INPUT FILE
================================================================================
NAME = mol.inp
|  1> # ================================================================
|  2> # Orca input file
|  3> # ================================================================
|  4> ! HF def2-QZVP VeryTightSCF UseSym
|  5> 
|  6> ! PAL4
|  7> 
|  8> %scf
|  9>   STABPerform true
| 10> #  STABRestartUHFifUnstable true
| 11> end
| 12> 
| 13> 
| 14> 
| 15> * xyzfile 0 3 ../../../../chem_database/Ti.xyz
| 16> 
| 17>                          ****END OF INPUT****
================================================================================

------------------------------------------------------------------------------
                            SYMMETRY HANDLING SETUP
------------------------------------------------------------------------------

------------------
SYMMETRY DETECTION
------------------
Preparing Data                    ... done
Detection Threshold:    SymThresh ... 1.0000e-04

Point Group will now be determined:
Moving molecule to center of mass ... done

POINT GROUP                       ... Kh

The coordinates will now be cleaned:
Structure cleanup requested       ... yes
Selected point group              ... Kh
Cleaning Tolerance      SymThresh ... 1.0000e-04

Cleaning coordinates              ... done

-----------------------------------------------
SYMMETRY-PERFECTED CARTESIAN COORDINATES (A.U.)
-----------------------------------------------
Warning (ORCA_SYM): Coordinates were not cleaned so far!

------------------
SYMMETRY REDUCTION
------------------
ORCA supports only abelian point groups.
It is now checked, if the determined point group is supported:
Point Group ( Kh    ) is          ... NOT supported
Reducing to abelian subgroup      ... D2h

(Re)building abelian point group:
Creating Character Table          ... done
Making direct product table       ... done
Constructing symmetry operations  ... done
Creating atom transfer table      ... done
Creating asymmetric unit          ... done

----------------------
ASYMMETRIC UNIT IN D2h
----------------------
  #  AT     MASS              COORDS (A.U.)             BAS
   0 Ti  47.9000   0.00000000   0.00000000   0.00000000   0

----------------------
SYMMETRY ADAPTED BASIS
----------------------
The coefficients for the symmetry adapted linear combinations (SALCS)
of basis functions will now be computed:
Number of basis functions         ...    84
Preparing memory                  ... done
Constructing Gamma(red)           ... done
Reducing Gamma(red)               ... done
Constructing SALCs                ... done
Checking SALC integrity           ... nothing suspicious
Normalizing SALCs                 ... done

Storing the symmetry object:
Symmetry file                     ... mol.sym.tmp
Writing symmetry information      ... done

                       ****************************
                       * Single Point Calculation *
                       ****************************

---------------------------------
CARTESIAN COORDINATES (ANGSTROEM)
---------------------------------
  Ti     0.000000    0.000000    0.000000

----------------------------
CARTESIAN COORDINATES (A.U.)
----------------------------
  NO LB      ZA    FRAG     MASS         X           Y           Z
   0 Ti   22.0000    0    47.900    0.000000    0.000000    0.000000

--------------------------------
INTERNAL COORDINATES (ANGSTROEM)
--------------------------------
 Ti     0   0   0     0.000000000000     0.00000000     0.00000000

---------------------------
INTERNAL COORDINATES (A.U.)
---------------------------
 Ti     0   0   0     0.000000000000     0.00000000     0.00000000

---------------------
BASIS SET INFORMATION
---------------------
There are 1 groups of distinct atoms

 Group   1 Type Ti  : 24s18p9d3f1g contracted to 11s6p5d3f1g pattern {114111111111/951111/51111/111/1}

Atom   0Ti   basis set group =>   1


           ************************************************************
           *        Program running with 4 parallel MPI-processes     *
           *              working on a common directory               *
           ************************************************************
------------------------------------------------------------------------------
                           ORCA GTO INTEGRAL CALCULATION
------------------------------------------------------------------------------

                         BASIS SET STATISTICS AND STARTUP INFO

 # of primitive gaussian shells          ...   55
 # of primitive gaussian functions       ...  153
 # of contracted shells                  ...   26
 # of contracted basis functions         ...   84
 Highest angular momentum                ...    4
 Maximum contraction depth               ...   11
 Integral package used                   ... LIBINT
 Integral threshhold            Thresh   ...  1.000e-12
 Primitive cut-off              TCut     ...  1.000e-14


------------------------------ INTEGRAL EVALUATION ----------------------------


 * One electron integrals 
 Pre-screening matrix                    ... done
 Shell pair data                         ... done (   0.000 sec)



           ************************************************************
           *        Program running with 4 parallel MPI-processes     *
           *              working on a common directory               *
           ************************************************************
-------------------------------------------------------------------------------
                                 ORCA SCF
-------------------------------------------------------------------------------

------------
SCF SETTINGS
------------
Hamiltonian:
 Ab initio Hamiltonian  Method          .... Hartree-Fock(GTOs)


General Settings:
 Integral files         IntName         .... mol
 Hartree-Fock type      HFTyp           .... UHF
 Total Charge           Charge          ....    0
 Multiplicity           Mult            ....    3
 Number of Electrons    NEL             ....   22
 Basis Dimension        Dim             ....   84
 Nuclear Repulsion      ENuc            ....      0.0000000000 Eh

 Symmetry handling      UseSym         .... ON
 Point group                           .... D2h
 Used point group                      .... D2h
 Number of irreps                      .... 8
   Irrep   Ag has   24 symmetry adapted basis functions (ofs=   0)
   Irrep  B1g has    7 symmetry adapted basis functions (ofs=  24)
   Irrep  B2g has    7 symmetry adapted basis functions (ofs=  31)
   Irrep  B3g has    7 symmetry adapted basis functions (ofs=  38)
   Irrep   Au has    3 symmetry adapted basis functions (ofs=  45)
   Irrep  B1u has   12 symmetry adapted basis functions (ofs=  48)
   Irrep  B2u has   12 symmetry adapted basis functions (ofs=  60)
   Irrep  B3u has   12 symmetry adapted basis functions (ofs=  72)

Convergence Acceleration:
 DIIS                   CNVDIIS         .... on
   Start iteration      DIISMaxIt       ....    12
   Startup error        DIISStart       ....  0.200000
   # of expansion vecs  DIISMaxEq       ....     5
   Bias factor          DIISBfac        ....   1.050
   Max. coefficient     DIISMaxC        ....  10.000
 Newton-Raphson         CNVNR           .... off
 SOSCF                  CNVSOSCF        .... off
 Level Shifting         CNVShift        .... on
   Level shift para.    LevelShift      ....    0.2500
   Turn off err/grad.   ShiftErr        ....    0.0010
 Zerner damping         CNVZerner       .... off
 Static damping         CNVDamp         .... on
   Fraction old density DampFac         ....    0.7000
   Max. Damping (<1)    DampMax         ....    0.9800
   Min. Damping (>=0)   DampMin         ....    0.0000
   Turn off err/grad.   DampErr         ....    0.1000
 Fernandez-Rico         CNVRico         .... off

SCF Procedure:
 Maximum # iterations   MaxIter         ....   125
 SCF integral mode      SCFMode         .... Direct
   Integral package                     .... LIBINT
 Reset frequeny         DirectResetFreq ....    20
 Integral Threshold     Thresh          ....  1.000e-12 Eh
 Primitive CutOff       TCut            ....  1.000e-14 Eh

Convergence Tolerance:
 Convergence Check Mode ConvCheckMode   .... Total+1el-Energy
 Convergence forced     ConvForced      .... 0
 Energy Change          TolE            ....  1.000e-09 Eh
 1-El. energy change                    ....  1.000e-06 Eh
 DIIS Error             TolErr          ....  1.000e-08


Diagonalization of the overlap matrix:
Smallest eigenvalue                        ... 1.203e-03
Time for diagonalization                   ...    0.012 sec
Threshold for overlap eigenvalues          ... 1.000e-08
Number of eigenvalues below threshold      ... 0
Time for construction of square roots      ...    0.002 sec
Producing symmetrization matrix            ... done (   0.001 sec)
Total time needed                          ...    0.015 sec

-------------------
DFT GRID GENERATION
-------------------

General Integration Accuracy     IntAcc      ...  4.340
Radial Grid Type                 RadialGrid  ... Gauss-Chebyshev
Angular Grid (max. acc.)         AngularGrid ... Lebedev-110
Angular grid pruning method      GridPruning ... 3 (G Style)
Weight generation scheme         WeightScheme... Becke
Basis function cutoff            BFCut       ...    1.0000e-12
Integration weight cutoff        WCut        ...    1.0000e-14
Grids for H and He will be reduced by one unit

# of grid points (after initial pruning)     ...   2972 (   0.0 sec)
# of grid points (after weights+screening)   ...   2972 (   0.0 sec)
Grid point division into batches done        ...    0.0 sec
Reduced shell lists constructed in    0.0 sec

Total number of grid points                  ...     2972
Total number of batches                      ...       47
Average number of points per batch           ...       63
Average number of grid points per atom       ...     2972
Average number of shells per batch           ...    12.62 (48.52%)
Average number of basis functions per batch  ...    45.85 (54.58%)
Average number of large shells per batch     ...    11.85 (93.90%)
Average number of large basis fcns per batch ...    43.23 (94.30%)
Maximum spatial batch extension              ...  30.38, 28.73, 28.73 au
Average spatial batch extension              ...   5.69,  4.68,  5.49 au

Time for grid setup =    0.046 sec

------------------------------
INITIAL GUESS: MODEL POTENTIAL
------------------------------
Loading Hartree-Fock densities                     ... done
Calculating cut-offs                               ... done
Setting up the integral package                    ... done
Initializing the effective Hamiltonian             ... done
Starting the Coulomb interaction                   ... done (   0.0 sec)
Reading the grid                                   ... done
Mapping shells                                     ... done
Starting the XC term evaluation                    ... done (   0.0 sec)
done (   0.0 sec)
Diagonalizing the Hamiltonian                      ... done (   0.0 sec)
Back transforming the eigenvectors                 ... done (   0.0 sec)
Now organizing SCF variables                       ... done
The symmetry of the initial guess is 3-B1g
Irrep occupations for operator 0
    Ag -    4
   B1g -    0
   B2g -    1
   B3g -    1
    Au -    0
   B1u -    2
   B2u -    2
   B3u -    2
Irrep occupations for operator 1
    Ag -    4
   B1g -    0
   B2g -    0
   B3g -    0
    Au -    0
   B1u -    2
   B2u -    2
   B3u -    2
                      ------------------
                      INITIAL GUESS DONE (   0.2 sec)
                      ------------------
--------------
SCF ITERATIONS
--------------
ITER       Energy         Delta-E        Max-DP      RMS-DP      [F,P]     Damp
               ***  Starting incremental Fock matrix formation  ***
  0   -848.3684629535   0.000000000000 0.02044026  0.00037720  0.5204316 0.7000
  1   -848.3763135132  -0.007850559699 0.02309935  0.00038059  0.3649032 0.7000
  2   -848.3824955752  -0.006182062082 0.02080970  0.00033379  0.2557761 0.7000
                               ***Turning on DIIS***
  3   -848.3872444488  -0.004748873580 0.01768813  0.00028368  0.1793314 0.7000
  4   -848.3274961579   0.059748290882 0.01710177  0.00028382  0.1257700 0.7000
  5   -848.3422218581  -0.014725700199 0.05008569  0.00085075  0.0881571 0.0000
  6   -848.4003677790  -0.058145920900 0.00891761  0.00017113  0.0042857 0.0000
  7   -848.4038526736  -0.003484894533 0.00799225  0.00015914  0.0025975 0.0000
  8   -848.4034141630   0.000438510592 0.00756426  0.00010594  0.0014105 0.0000
  9   -848.4027613796   0.000652783413 0.01585663  0.00017124  0.0007787 0.0000
 10   -848.4039719381  -0.001210558544 0.00721113  0.00007668  0.0001666 0.0000
 11   -848.4020631143   0.001908823785 0.00124067  0.00001555  0.0000572 0.0000
 12   -848.4017339675   0.000329146839 0.00017450  0.00000558  0.0000203 0.0000
 13   -848.4016163967   0.000117570832 0.00014233  0.00000255  0.0000080 0.0000
 14   -848.4016331558  -0.000016759099 0.00003744  0.00000118  0.0000049 0.0000
 15   -848.4016341407  -0.000000984940 0.00005502  0.00000176  0.0000048 0.0000
 16   -848.4016002113   0.000033929446 0.00010528  0.00000338  0.0000038 0.0000
 17   -848.4015965848   0.000003626501 0.00001485  0.00000051  0.0000010 0.0000
 18   -848.4015972820  -0.000000697226 0.00001358  0.00000045  0.0000003 0.0000
 19   -848.4015959173   0.000001364689 0.00000225  0.00000006  0.0000001 0.0000
               *** Restarting incremental Fock matrix formation ***
                                   *** Resetting DIIS ***
 20   -848.4015954545   0.000000462808 0.00000070  0.00000002  0.0000000 0.0000
 21   -848.4015955658  -0.000000111269 0.00000071  0.00000002  0.0000000 0.0000
 22   -848.4015954475   0.000000118259 0.00000026  0.00000001  0.0000000 0.0000
                            ***DIIS convergence achieved***

               *****************************************************
               *                     SUCCESS                       *
               *           SCF CONVERGED AFTER  23 CYCLES          *
               *****************************************************


------------------------------------------------------------------------------
                          SCF STABILITY ANALYSIS                              
------------------------------------------------------------------------------


                       ****Iteration    0****

   Memory handling for direct AO based CIS:
   Memory per vector needed      ...     1 MB
   Memory needed                 ...     1 MB
   Memory available              ...  1024 MB
   Number of vectors per batch   ...  1024
   Number of batches             ...     1
   Time for densities:     0.001
   Using LibInt in JK Direct
   Time for J+K (Direct):     0.676
   Time for Sigma-Completion:     0.002
   Lowest Energy          :     0.232313849465
   Maximum Energy change  :     0.235560776985 (vector 2)
   Maximum residual norm  :     0.008083083582

                       ****Iteration    1****
   Time for densities:     0.001
   Using LibInt in JK Direct
   Time for J+K (Direct):     0.541
   Time for Sigma-Completion:     0.001
   Lowest Energy          :     0.222011509282
   Maximum Energy change  :     0.011855566310 (vector 2)
   Maximum residual norm  :     0.007291204767

                       ****Iteration    2****
   Time for densities:     0.001
   Using LibInt in JK Direct
   Time for J+K (Direct):     0.541
   Time for Sigma-Completion:     0.001
   Lowest Energy          :     0.181025302698
   Maximum Energy change  :     0.040986206584 (vector 0)
   Maximum residual norm  :     0.013400262034

                       ****Iteration    3****
   Time for densities:     0.001
   Using LibInt in JK Direct
   Time for J+K (Direct):     0.539
   Time for Sigma-Completion:     0.001
   Lowest Energy          :     0.161290979320
   Maximum Energy change  :     0.024636242568 (vector 1)
   Maximum residual norm  :     0.017880187826

                       ****Iteration    4****
   Time for densities:     0.001
   Using LibInt in JK Direct
   Time for J+K (Direct):     0.538
   Time for Sigma-Completion:     0.001
   Lowest Energy          :     0.123962504841
   Maximum Energy change  :     0.042270092550 (vector 1)
   Maximum residual norm  :     0.010678064865

                       ****Iteration    5****
   Time for densities:     0.001
   Using LibInt in JK Direct
   Time for J+K (Direct):     0.538
   Time for Sigma-Completion:     0.001
   Lowest Energy          :     0.120290163786
   Maximum Energy change  :     0.003672341055 (vector 1)
   Maximum residual norm  :     0.006550367297

                       ****Iteration    6****
   Time for densities:     0.001
   Using LibInt in JK Direct
   Time for J+K (Direct):     0.538
   Time for Sigma-Completion:     0.001
   Lowest Energy          :     0.119967332707
   Maximum Energy change  :     0.000322831078 (vector 1)
   Maximum residual norm  :     0.006239846666

                       ****Iteration    7****
   Time for densities:     0.001
   Using LibInt in JK Direct
   Time for J+K (Direct):     0.539
   Time for Sigma-Completion:     0.001
   Lowest Energy          :     0.119944589957
   Maximum Energy change  :     0.000022742750 (vector 0)

         *** CONVERGENCE OF ENERGIES REACHED ***

----------------------------- 
SCF STABILITY ANALYSIS RESULT 
----------------------------- 

UHF/UKS->UHF/UKS - singlet - internal

   Root    Eigenvalue (au) 
     0       0.119945 
     1       0.119945 
     2       0.121128 

Stability Analysis indicates a stable HF/KS wave function.


Total time for performing the stability analysis:     4.476sec


----------------
TOTAL SCF ENERGY
----------------

Total Energy       :         -848.40159545 Eh          -23086.18109 eV

Components:
Nuclear Repulsion  :            0.00000000 Eh               0.00000 eV
Electronic Energy  :         -848.40159545 Eh          -23086.18109 eV
One Electron Energy:        -1162.78370100 Eh          -31640.95310 eV
Two Electron Energy:          314.38210555 Eh            8554.77201 eV

Virial components:
Potential Energy   :        -1696.78868131 Eh          -46171.96736 eV
Kinetic Energy     :          848.38708586 Eh           23085.78626 eV
Virial Ratio       :            2.00001710


---------------
SCF CONVERGENCE
---------------

  Last Energy change         ...   -3.7016e-09  Tolerance :   1.0000e-09
  Last MAX-Density change    ...    1.4609e-07  Tolerance :   1.0000e-08
  Last RMS-Density change    ...    5.0167e-09  Tolerance :   1.0000e-09
  Last DIIS Error            ...    1.7603e-08  Tolerance :   1.0000e-08

             **** THE GBW FILE WAS UPDATED (mol.gbw) ****
             **** DENSITY FILE WAS UPDATED (mol.scfp.tmp) ****
             **** ENERGY FILE WAS UPDATED (mol.en.tmp) ****
----------------------
UHF SPIN CONTAMINATION
----------------------

Expectation value of <S**2>     :     2.010002
Ideal value S*(S+1) for S=1.0   :     2.000000
Deviation                       :     0.010002

----------------
ORBITAL ENERGIES
----------------
                 SPIN UP ORBITALS
  NO   OCC          E(Eh)            E(eV)    Irrep 
   0   1.0000    -183.276111     -4987.1965    1-Ag
   1   1.0000     -21.442373      -583.4766    2-Ag
   2   1.0000     -17.811433      -484.6737    1-B2u
   3   1.0000     -17.811433      -484.6737    1-B3u
   4   1.0000     -17.809666      -484.6256    1-B1u
   5   1.0000      -2.938466       -79.9597    3-Ag
   6   1.0000      -1.905751       -51.8581    2-B1u
   7   1.0000      -1.860756       -50.6337    2-B3u
   8   1.0000      -1.860756       -50.6337    2-B2u
   9   1.0000      -0.436747       -11.8845    1-B2g
  10   1.0000      -0.436747       -11.8845    1-B3g
  11   1.0000      -0.232444        -6.3251    4-Ag
  12   0.0000       0.021406         0.5825    3-B2u
  13   0.0000       0.021406         0.5825    3-B3u
  14   0.0000       0.021959         0.5975    3-B1u
  15   0.0000       0.072003         1.9593    5-Ag
  16   0.0000       0.094466         2.5705    6-Ag
  17   0.0000       0.094466         2.5705    1-B1g
  18   0.0000       0.105725         2.8769    4-B2u
  19   0.0000       0.105725         2.8769    4-B3u
  20   0.0000       0.106234         2.8908    4-B1u
  21   0.0000       0.106618         2.9012    7-Ag
  22   0.0000       0.131099         3.5674    2-B3g
  23   0.0000       0.131099         3.5674    2-B2g
  24   0.0000       0.172445         4.6925    8-Ag
  25   0.0000       0.172445         4.6925    2-B1g
  26   0.0000       0.195598         5.3225    9-Ag
  27   0.0000       0.360020         9.7966    5-B2u
  28   0.0000       0.360020         9.7966    5-B3u
  29   0.0000       0.361489         9.8366    5-B1u
  30   0.0000       0.367857        10.0099   10-Ag
  31   0.0000       0.433378        11.7928    3-B3g
  32   0.0000       0.433378        11.7928    3-B2g
  33   0.0000       0.483988        13.1700   11-Ag
  34   0.0000       0.483988        13.1700    3-B1g
  35   0.0000       0.499524        13.5928   12-Ag
  36   0.0000       0.670114        18.2347    1-Au
  37   0.0000       0.670114        18.2347    6-B1u
  38   0.0000       0.675156        18.3719    6-B2u
  39   0.0000       0.675156        18.3719    6-B3u
  40   0.0000       0.677807        18.4441    7-B3u
  41   0.0000       0.677807        18.4441    7-B2u
  42   0.0000       0.678392        18.4600    7-B1u
  43   0.0000       1.157398        31.4944    8-B3u
  44   0.0000       1.157398        31.4944    8-B2u
  45   0.0000       1.164012        31.6744    8-B1u
  46   0.0000       1.317479        35.8504    4-B3g
  47   0.0000       1.317479        35.8504    4-B2g
  48   0.0000       1.369192        37.2576    4-B1g
  49   0.0000       1.369192        37.2576   13-Ag
  50   0.0000       1.389992        37.8236   14-Ag
  51   0.0000       1.787184        48.6318   15-Ag
  52   0.0000       2.005800        54.5806    9-B1u
  53   0.0000       2.005800        54.5806    2-Au
  54   0.0000       2.028154        55.1889    9-B2u
  55   0.0000       2.028154        55.1889    9-B3u
  56   0.0000       2.043320        55.6016   10-B1u
  57   0.0000       2.047716        55.7212   10-B2u
  58   0.0000       2.047716        55.7212   10-B3u
  59   0.0000       2.844195        77.3945    5-B2g
  60   0.0000       2.844195        77.3945    5-B3g
  61   0.0000       2.846650        77.4613   16-Ag
  62   0.0000       2.846650        77.4613    5-B1g
  63   0.0000       2.849028        77.5260   17-Ag
  64   0.0000       2.849028        77.5260    6-B1g
  65   0.0000       2.854105        77.6642    6-B2g
  66   0.0000       2.854105        77.6642    6-B3g
  67   0.0000       2.856482        77.7288   18-Ag
  68   0.0000       3.846113       104.6581    7-B3g
  69   0.0000       3.846113       104.6581    7-B2g
  70   0.0000       3.882850       105.6577    7-B1g
  71   0.0000       3.882850       105.6577   19-Ag
  72   0.0000       3.910897       106.4209   20-Ag
  73   0.0000       6.364036       173.1742   11-B1u
  74   0.0000       6.364036       173.1742    3-Au
  75   0.0000       6.392380       173.9455   11-B3u
  76   0.0000       6.392380       173.9455   11-B2u
  77   0.0000       6.408864       174.3941   12-B2u
  78   0.0000       6.408864       174.3941   12-B3u
  79   0.0000       6.411466       174.4649   12-B1u
  80   0.0000       7.097284       193.1269   21-Ag
  81   0.0000      24.263074       660.2318   22-Ag
  82   0.0000      82.108386      2234.2828   23-Ag
  83   0.0000     517.977651     14094.8885   24-Ag

                 SPIN DOWN ORBITALS
  NO   OCC          E(Eh)            E(eV)    Irrep 
   0   1.0000    -183.276023     -4987.1941    1-Ag
   1   1.0000     -21.409364      -582.5784    2-Ag
   2   1.0000     -17.784876      -483.9511    1-B2u
   3   1.0000     -17.784876      -483.9511    1-B3u
   4   1.0000     -17.762737      -483.3486    1-B1u
   5   1.0000      -2.811999       -76.5184    3-Ag
   6   1.0000      -1.739389       -47.3312    2-B3u
   7   1.0000      -1.739389       -47.3312    2-B2u
   8   1.0000      -1.677571       -45.6490    2-B1u
   9   1.0000      -0.210583        -5.7303    4-Ag
  10   0.0000       0.021736         0.5915    3-B2u
  11   0.0000       0.021736         0.5915    3-B3u
  12   0.0000       0.026001         0.7075    3-B1u
  13   0.0000       0.076283         2.0758    5-Ag
  14   0.0000       0.105542         2.8720    6-Ag
  15   0.0000       0.105542         2.8720    1-B1g
  16   0.0000       0.110187         2.9983    4-B3u
  17   0.0000       0.110187         2.9983    4-B2u
  18   0.0000       0.111380         3.0308    7-Ag
  19   0.0000       0.113945         3.1006    1-B3g
  20   0.0000       0.113945         3.1006    1-B2g
  21   0.0000       0.116367         3.1665    4-B1u
  22   0.0000       0.196910         5.3582    8-Ag
  23   0.0000       0.196910         5.3582    2-B1g
  24   0.0000       0.212975         5.7954    9-Ag
  25   0.0000       0.228159         6.2085    2-B3g
  26   0.0000       0.228159         6.2085    2-B2g
  27   0.0000       0.370099        10.0709    5-B2u
  28   0.0000       0.370099        10.0709    5-B3u
  29   0.0000       0.380420        10.3518    5-B1u
  30   0.0000       0.383788        10.4434   10-Ag
  31   0.0000       0.498397        13.5621   11-Ag
  32   0.0000       0.498397        13.5621    3-B1g
  33   0.0000       0.510330        13.8868   12-Ag
  34   0.0000       0.521356        14.1868    3-B3g
  35   0.0000       0.521356        14.1868    3-B2g
  36   0.0000       0.681187        18.5360    6-B3u
  37   0.0000       0.681187        18.5360    6-B2u
  38   0.0000       0.690634        18.7931    6-B1u
  39   0.0000       0.691657        18.8210    1-Au
  40   0.0000       0.691657        18.8210    7-B1u
  41   0.0000       0.691806        18.8250    7-B2u
  42   0.0000       0.691806        18.8250    7-B3u
  43   0.0000       1.182302        32.1721    8-B2u
  44   0.0000       1.182302        32.1721    8-B3u
  45   0.0000       1.208145        32.8753    8-B1u
  46   0.0000       1.388473        37.7823    4-B1g
  47   0.0000       1.388473        37.7823   13-Ag
  48   0.0000       1.405228        38.2382   14-Ag
  49   0.0000       1.420146        38.6441    4-B3g
  50   0.0000       1.420146        38.6441    4-B2g
  51   0.0000       1.820778        49.5459   15-Ag
  52   0.0000       2.063811        56.1591    9-B2u
  53   0.0000       2.063811        56.1591    9-B3u
  54   0.0000       2.092726        56.9460    9-B1u
  55   0.0000       2.098028        57.0902   10-B2u
  56   0.0000       2.098028        57.0902   10-B3u
  57   0.0000       2.100347        57.1533   10-B1u
  58   0.0000       2.100347        57.1533    2-Au
  59   0.0000       2.855411        77.6997    5-B1g
  60   0.0000       2.855411        77.6997   16-Ag
  61   0.0000       2.885702        78.5239    5-B2g
  62   0.0000       2.885702        78.5239    5-B3g
  63   0.0000       2.885794        78.5264   17-Ag
  64   0.0000       2.887781        78.5805    6-B3g
  65   0.0000       2.887781        78.5805    6-B2g
  66   0.0000       2.891072        78.6701   18-Ag
  67   0.0000       2.891072        78.6701    6-B1g
  68   0.0000       3.905991       106.2874    7-B1g
  69   0.0000       3.905991       106.2874   19-Ag
  70   0.0000       3.929103       106.9163   20-Ag
  71   0.0000       3.949551       107.4728    7-B2g
  72   0.0000       3.949551       107.4728    7-B3g
  73   0.0000       6.432363       175.0335   11-B2u
  74   0.0000       6.432363       175.0335   11-B3u
  75   0.0000       6.478771       176.2963   11-B1u
  76   0.0000       6.486964       176.5193   12-B3u
  77   0.0000       6.486964       176.5193   12-B2u
  78   0.0000       6.490946       176.6276   12-B1u
  79   0.0000       6.490946       176.6276    3-Au
  80   0.0000       7.131144       194.0483   21-Ag
  81   0.0000      24.284253       660.8081   22-Ag
  82   0.0000      82.115976      2234.4893   23-Ag
  83   0.0000     517.979051     14094.9265   24-Ag

                    ********************************
                    * MULLIKEN POPULATION ANALYSIS *
                    ********************************

--------------------------------------------
MULLIKEN ATOMIC CHARGES AND SPIN POPULATIONS
--------------------------------------------
   0 Ti:    0.000000    2.000000
Sum of atomic charges         :    0.0000000
Sum of atomic spin populations:    2.0000000

-----------------------------------------------------
MULLIKEN REDUCED ORBITAL CHARGES AND SPIN POPULATIONS
-----------------------------------------------------
CHARGE
  0 Tis       :     7.997583  s :     7.997583
      pz      :     3.999299  p :    11.998479
      px      :     3.999590
      py      :     3.999590
      dz2     :     0.002369  d :     2.002348
      dxz     :     0.999990
      dyz     :     0.999990
      dx2y2   :     0.000000
      dxy     :     0.000000
      f0      :     0.000701  f :     0.001521
      f+1     :     0.000410
      f-1     :     0.000410
      f+2     :     0.000000
      f-2     :     0.000000
      f+3     :     0.000000
      f-3     :     0.000000
      g0      :     0.000048  g :     0.000068
      g+1     :     0.000010
      g-1     :     0.000010
      g+2     :     0.000000
      g-2     :     0.000000
      g+3     :     0.000000
      g-3     :     0.000000
      g+4     :     0.000000
      g-4     :     0.000000

SPIN
  0 Tis       :     0.002240  s :     0.002240
      pz      :    -0.000690  p :    -0.001092
      px      :    -0.000201
      py      :    -0.000201
      dz2     :    -0.002266  d :     1.997713
      dxz     :     0.999990
      dyz     :     0.999990
      dx2y2   :     0.000000
      dxy     :     0.000000
      f0      :     0.000690  f :     0.001092
      f+1     :     0.000201
      f-1     :     0.000201
      f+2     :    -0.000000
      f-2     :     0.000000
      f+3     :    -0.000000
      f-3     :     0.000000
      g0      :     0.000026  g :     0.000046
      g+1     :     0.000010
      g-1     :     0.000010
      g+2     :    -0.000000
      g-2     :     0.000000
      g+3     :     0.000000
      g-3     :     0.000000
      g+4     :     0.000000
      g-4     :     0.000000


                     *******************************
                     * LOEWDIN POPULATION ANALYSIS *
                     *******************************

-------------------------------------------
LOEWDIN ATOMIC CHARGES AND SPIN POPULATIONS
-------------------------------------------
   0 Ti:    0.000000    2.000000

----------------------------------------------------
LOEWDIN REDUCED ORBITAL CHARGES AND SPIN POPULATIONS
----------------------------------------------------
CHARGE
  0 Tis       :     7.997583  s :     7.997583
      pz      :     3.999299  p :    11.998479
      px      :     3.999590
      py      :     3.999590
      dz2     :     0.002369  d :     2.002348
      dxz     :     0.999990
      dyz     :     0.999990
      dx2y2   :     0.000000
      dxy     :     0.000000
      f0      :     0.000701  f :     0.001521
      f+1     :     0.000410
      f-1     :     0.000410
      f+2     :     0.000000
      f-2     :     0.000000
      f+3     :     0.000000
      f-3     :     0.000000
      g0      :     0.000048  g :     0.000068
      g+1     :     0.000010
      g-1     :     0.000010
      g+2     :     0.000000
      g-2     :     0.000000
      g+3     :     0.000000
      g-3     :     0.000000
      g+4     :     0.000000
      g-4     :     0.000000

SPIN
  0 Tis       :     0.002240  s :     0.002240
      pz      :    -0.000690  p :    -0.001092
      px      :    -0.000201
      py      :    -0.000201
      dz2     :    -0.002266  d :     1.997713
      dxz     :     0.999990
      dyz     :     0.999990
      dx2y2   :     0.000000
      dxy     :     0.000000
      f0      :     0.000690  f :     0.001092
      f+1     :     0.000201
      f-1     :     0.000201
      f+2     :     0.000000
      f-2     :     0.000000
      f+3     :    -0.000000
      f-3     :     0.000000
      g0      :     0.000026  g :     0.000046
      g+1     :     0.000010
      g-1     :     0.000010
      g+2     :     0.000000
      g-2     :     0.000000
      g+3     :     0.000000
      g-3     :     0.000000
      g+4     :     0.000000
      g-4     :     0.000000


                      *****************************
                      * MAYER POPULATION ANALYSIS *
                      *****************************

  NA   - Mulliken gross atomic population
  ZA   - Total nuclear charge
  QA   - Mulliken gross atomic charge
  VA   - Mayer's total valence
  BVA  - Mayer's bonded valence
  FA   - Mayer's free valence

  ATOM       NA         ZA         QA         VA         BVA        FA
  0 Ti    22.0000    22.0000     0.0000     2.0200     0.0000     2.0200

  Mayer bond orders larger than 0.1


-------
TIMINGS
-------

Total SCF time: 0 days 0 hours 0 min 13 sec 

Total time                  ....      13.245 sec
Sum of individual times     ....      13.208 sec  ( 99.7%)

Fock matrix formation       ....       8.513 sec  ( 64.3%)
Diagonalization             ....       0.037 sec  (  0.3%)
Density matrix formation    ....       0.003 sec  (  0.0%)
Population analysis         ....       0.003 sec  (  0.0%)
Initial guess               ....       0.116 sec  (  0.9%)
Orbital Transformation      ....       0.000 sec  (  0.0%)
Orbital Orthonormalization  ....       0.000 sec  (  0.0%)
DIIS solution               ....       0.015 sec  (  0.1%)
SCF Stability Analysis      ....       4.476 sec  ( 33.8%)

-------------------------   --------------------
FINAL SINGLE POINT ENERGY      -848.401595451195
-------------------------   --------------------


                            ***************************************
                            *     ORCA property calculations      *
                            ***************************************

                                    ---------------------
                                    Active property flags
                                    ---------------------
   (+) Dipole Moment


------------------------------------------------------------------------------
                       ORCA ELECTRIC PROPERTIES CALCULATION
------------------------------------------------------------------------------

Dipole Moment Calculation                       ... on
Quadrupole Moment Calculation                   ... off
Polarizability Calculation                      ... off
GBWName                                         ... mol.gbw
Electron density file                           ... mol.scfp.tmp
The origin for moment calculation is the CENTER OF MASS  = ( 0.000000,  0.000000  0.000000)

-------------
DIPOLE MOMENT
-------------
                                X             Y             Z
Electronic contribution:     -0.00000       0.00000       0.00000
Nuclear contribution   :      0.00000       0.00000       0.00000
                        -----------------------------------------
Total Dipole Moment    :     -0.00000       0.00000       0.00000
                        -----------------------------------------
Magnitude (a.u.)       :      0.00000
Magnitude (Debye)      :      0.00000


Timings for individual modules:

Sum of individual times         ...       13.935 sec (=   0.232 min)
GTO integral calculation        ...        0.475 sec (=   0.008 min)   3.4 %
SCF iterations                  ...       13.460 sec (=   0.224 min)  96.6 %
                             ****ORCA TERMINATED NORMALLY****
TOTAL RUN TIME: 0 days 0 hours 0 minutes 14 seconds 303 msec
