[Molden Format]
[Title]
 Molden file created by orca_2mkl for BaseName=mol

[Atoms] AU
Br   1  35          0.0000000000         0.0000000000         0.0000000000 
[GTO]
  1 0
s  11 1.0 
 10629044.2640000004         0.8962600799
  1591918.2738999999         1.6775213831
   362333.9843700000         2.9059933188
   102643.1114100000         4.7619080282
    33489.8466680000         7.4587088587
    12091.2471900000        11.2095751428
     4716.1908789000        16.0196840522
     1956.1598080000        21.2629819854
      853.0859584800        24.7643455201
      387.9663366600        22.7539921856
      182.8515661300        13.3166017726
s   4 1.0 
     3240.4086421000         1.6971456255
     1000.4631935000         7.2997500709
      383.3730168200        17.9195856142
      166.0392969800        22.8291444962
s   1 1.0 
       87.9199069940        20.4632922726
s   1 1.0 
       35.6758400680        10.4037701430
s   1 1.0 
       17.5436578420         6.1094231144
s   1 1.0 
        8.4473660433         3.5314338648
s   1 1.0 
        3.9666180616         2.0032049331
s   1 1.0 
        1.8356815987         1.1239787696
s   1 1.0 
        0.5908477878         0.4803046626
s   1 1.0 
        0.2886321842         0.2806523345
s   1 1.0 
        0.1215338054         0.1467009461
p  10 1.0 
    26566.4765790000        30.0713611458
     6290.5088566000        44.1149852837
     2043.3178410000        62.1633782076
      781.6722100700        81.5661463918
      331.5107894500        97.0195011953
      151.0919866700        99.5868925940
       72.3952781660        81.0163472000
       35.8695108440        46.1748800549
       18.1399061910        14.4953630488
        9.0466688944         1.7079740077
p   5 1.0 
      253.7182214600        -2.6747453797
       97.2508180580        -6.1071702185
       42.0348979600        -6.6316841067
        9.9685673555         8.2556109906
        4.9395854745         7.5881347916
p   1 1.0 
        2.4382845475         4.3430574158
p   1 1.0 
        1.1800000000         1.7530431134
p   1 1.0 
        0.5104756497         0.6150478095
p   1 1.0 
        0.2121585193         0.2052417375
p   1 1.0 
        0.0839436050         0.0644057450
d   7 1.0 
      601.4443448400       152.0086728247
      180.8571864000       169.1227658256
       69.9868063400       162.7958607384
       30.3247103000       125.2743408308
       14.0279092380        74.3681772456
        6.6511702082        30.7315590155
        3.1354168338         8.5393222725
d   1 1.0 
        1.4393591843         5.3922020146
d   1 1.0 
        0.5935044144         1.1440947750
d   1 1.0 
        0.2300000000         0.2177678666
f   1 1.0 
        0.3407000000         0.5056352929
f   1 1.0 
        0.8257000000         3.7055290264
g   1 1.0 
        0.6491000000         2.0059789558

[5D]
[9G]
[MO]
 Sym=     1a
 Ene= -4.90062451965378E+02
 Spin= Alpha
 Occup= 1.000000
  1       0.878091342196
  2       0.000179776569
  3       0.151228487134
  4       0.014424317632
  5      -0.002382006645
  6       0.001131069984
  7      -0.000604611586
  8       0.000227396092
  9      -0.000102249541
 10       0.000063584267
 11      -0.000015899484
 12       0.000000000000
 13      -0.000000000000
 14      -0.000000000000
 15      -0.000000000000
 16       0.000000000000
 17      -0.000000000000
 18       0.000000000000
 19      -0.000000000000
 20       0.000000000000
 21      -0.000000000000
 22      -0.000000000000
 23       0.000000000000
 24       0.000000000000
 25      -0.000000000000
 26      -0.000000000000
 27      -0.000000000000
 28       0.000000000000
 29      -0.000000000000
 30       0.000000000000
 31      -0.000000000000
 32       0.000000000000
 33      -0.000000305976
 34       0.000000000000
 35       0.000000000000
 36       0.000000529966
 37       0.000000000000
 38       0.000000244447
 39      -0.000000000000
 40       0.000000000000
 41      -0.000000423394
 42      -0.000000000000
 43      -0.000000176348
 44       0.000000000000
 45       0.000000000000
 46       0.000000305444
 47      -0.000000000000
 48       0.000000056250
 49      -0.000000000000
 50       0.000000000000
 51      -0.000000097428
 52       0.000000000000
 53       0.000000000000
 54      -0.000000000000
 55      -0.000000000000
 56       0.000000000000
 57      -0.000000000000
 58       0.000000000000
 59      -0.000000000000
 60       0.000000000000
 61       0.000000000000
 62      -0.000000000000
 63      -0.000000000000
 64       0.000000000000
 65       0.000000000000
 66       0.000000000000
 67      -0.000000000070
 68       0.000000000000
 69      -0.000000000000
 70       0.000000000105
 71      -0.000000000000
 72       0.000000000000
 73       0.000000000000
 74       0.000000000139
 75       0.000000000000
 Sym=     1a
 Ene= -6.52009308991706E+01
 Spin= Alpha
 Occup= 1.000000
  1      -0.277914820592
  2      -0.159425951124
  3      -0.061202656183
  4       0.417233438726
  5       0.569151259182
  6       0.172131151757
  7       0.006224551418
  8       0.001998949687
  9      -0.000502346360
 10       0.000242817193
 11      -0.000076409097
 12      -0.000000000000
 13       0.000000000000
 14       0.000000000000
 15       0.000000000000
 16      -0.000000000000
 17      -0.000000000000
 18      -0.000000000000
 19       0.000000000000
 20      -0.000000000000
 21       0.000000000000
 22      -0.000000000000
 23       0.000000000000
 24      -0.000000000000
 25       0.000000000000
 26       0.000000000000
 27       0.000000000000
 28      -0.000000000000
 29       0.000000000000
 30      -0.000000000000
 31       0.000000000000
 32      -0.000000000000
 33      -0.000050435107
 34      -0.000000000000
 35      -0.000000000000
 36       0.000087356168
 37       0.000000000000
 38       0.000029386216
 39       0.000000000000
 40       0.000000000000
 41      -0.000050898418
 42       0.000000000000
 43      -0.000016504486
 44      -0.000000000000
 45      -0.000000000000
 46       0.000028586608
 47      -0.000000000000
 48       0.000006022080
 49       0.000000000000
 50       0.000000000000
 51      -0.000010430548
 52      -0.000000000000
 53      -0.000000000000
 54      -0.000000000000
 55       0.000000000000
 56      -0.000000000000
 57      -0.000000000000
 58       0.000000000000
 59       0.000000000000
 60      -0.000000000000
 61       0.000000000000
 62      -0.000000000000
 63       0.000000000000
 64      -0.000000000000
 65      -0.000000000000
 66      -0.000000000000
 67      -0.000000000991
 68      -0.000000000000
 69       0.000000000000
 70       0.000000001477
 71      -0.000000000000
 72       0.000000000000
 73      -0.000000000000
 74       0.000000001953
 75       0.000000000000
 Sym=     1a
 Ene= -5.85616619208133E+01
 Spin= Alpha
 Occup= 1.000000
  1       0.000000000000
  2       0.000000000000
  3       0.000000000000
  4      -0.000000000000
  5       0.000000000000
  6      -0.000000000000
  7       0.000000000000
  8       0.000000000000
  9      -0.000000000000
 10       0.000000000000
 11       0.000000000000
 12       0.997799922888
 13      -0.000000000000
 14       0.000000000000
 15       0.003069770406
 16      -0.000000000000
 17      -0.000000000000
 18       0.004062058111
 19       0.000000000000
 20       0.000000000000
 21      -0.001680361237
 22      -0.000000000000
 23      -0.000000000000
 24       0.000836740401
 25       0.000000000000
 26      -0.000000000000
 27      -0.000361470633
 28      -0.000000000000
 29       0.000000000000
 30       0.000104502088
 31      -0.000000000000
 32      -0.000000000000
 33       0.000000000000
 34       0.000000000000
 35      -0.000000000000
 36      -0.000000000000
 37       0.000000000000
 38      -0.000000000000
 39      -0.000000000000
 40      -0.000000000000
 41      -0.000000000000
 42      -0.000000000000
 43       0.000000000000
 44      -0.000000000000
 45       0.000000000000
 46       0.000000000000
 47      -0.000000000000
 48       0.000000000000
 49       0.000000000000
 50      -0.000000000000
 51      -0.000000000000
 52      -0.000000000000
 53      -0.000000000000
 54       0.000000677485
 55      -0.000000000000
 56       0.000000000000
 57       0.000000000000
 58       0.000000874629
 59       0.000000000000
 60      -0.000000000000
 61      -0.000001152713
 62       0.000000000000
 63      -0.000000000000
 64      -0.000000000000
 65      -0.000001488146
 66      -0.000000000000
 67      -0.000000000000
 68      -0.000000000000
 69      -0.000000000000
 70       0.000000000000
 71      -0.000000000000
 72      -0.000000000000
 73      -0.000000000000
 74      -0.000000000000
 75       0.000000000000
 Sym=     1a
 Ene= -5.85540460880341E+01
 Spin= Alpha
 Occup= 1.000000
  1      -0.000000000000
  2       0.000000000000
  3      -0.000000000000
  4       0.000000000000
  5      -0.000000000000
  6       0.000000000000
  7      -0.000000000000
  8       0.000000000000
  9       0.000000000000
 10      -0.000000000000
 11      -0.000000000000
 12      -0.000000000000
 13       0.997832112092
 14      -0.000000000000
 15      -0.000000000000
 16       0.002977656268
 17       0.000000000000
 18       0.000000000000
 19       0.004126193143
 20      -0.000000000000
 21      -0.000000000000
 22      -0.001723112870
 23       0.000000000000
 24      -0.000000000000
 25       0.000862153472
 26       0.000000000000
 27      -0.000000000000
 28      -0.000371190198
 29      -0.000000000000
 30      -0.000000000000
 31       0.000107509537
 32       0.000000000000
 33      -0.000000000000
 34       0.000000000000
 35       0.000000000000
 36      -0.000000000000
 37      -0.000000000000
 38      -0.000000000000
 39      -0.000000000000
 40       0.000000000000
 41       0.000000000000
 42       0.000000000000
 43      -0.000000000000
 44       0.000000000000
 45      -0.000000000000
 46      -0.000000000000
 47      -0.000000000000
 48       0.000000000000
 49      -0.000000000000
 50       0.000000000000
 51       0.000000000000
 52      -0.000000000000
 53      -0.000000000000
 54       0.000000000000
 55       0.000000222669
 56      -0.000000000000
 57       0.000000000000
 58       0.000000000000
 59       0.000000862394
 60       0.000000000000
 61      -0.000000000000
 62      -0.000000409481
 63       0.000000000000
 64      -0.000000000000
 65      -0.000000000000
 66      -0.000001585913
 67      -0.000000000000
 68       0.000000000000
 69      -0.000000000000
 70      -0.000000000000
 71      -0.000000000000
 72       0.000000000000
 73       0.000000000000
 74      -0.000000000000
 75       0.000000000000
 Sym=     1a
 Ene= -5.85540460880338E+01
 Spin= Alpha
 Occup= 1.000000
  1      -0.000000000000
  2      -0.000000000000
  3      -0.000000000000
  4       0.000000000000
  5       0.000000000000
  6       0.000000000000
  7      -0.000000000000
  8      -0.000000000000
  9      -0.000000000000
 10       0.000000000000
 11       0.000000000000
 12       0.000000000000
 13      -0.000000000000
 14       0.997832112092
 15      -0.000000000000
 16      -0.000000000000
 17       0.002977656268
 18      -0.000000000000
 19      -0.000000000000
 20       0.004126193143
 21       0.000000000000
 22       0.000000000000
 23      -0.001723112870
 24       0.000000000000
 25       0.000000000000
 26       0.000862153472
 27      -0.000000000000
 28      -0.000000000000
 29      -0.000371190198
 30      -0.000000000000
 31      -0.000000000000
 32       0.000107509537
 33       0.000000000000
 34      -0.000000000000
 35      -0.000000000000
 36       0.000000000000
 37      -0.000000000000
 38       0.000000000000
 39       0.000000000000
 40       0.000000000000
 41       0.000000000000
 42      -0.000000000000
 43      -0.000000000000
 44      -0.000000000000
 45      -0.000000000000
 46      -0.000000000000
 47      -0.000000000000
 48       0.000000000000
 49       0.000000000000
 50       0.000000000000
 51       0.000000000000
 52      -0.000000000000
 53       0.000000545426
 54       0.000000000000
 55       0.000000000000
 56      -0.000000704142
 57       0.000000000000
 58       0.000000000000
 59      -0.000000000000
 60      -0.000001003020
 61      -0.000000000000
 62       0.000000000000
 63       0.000001294893
 64      -0.000000000000
 65      -0.000000000000
 66       0.000000000000
 67       0.000000000000
 68       0.000000000000
 69      -0.000000000000
 70      -0.000000000000
 71      -0.000000000000
 72       0.000000000000
 73      -0.000000000000
 74      -0.000000000000
 75       0.000000000000
 Sym=     1a
 Ene= -9.87526400439680E+00
 Spin= Alpha
 Occup= 1.000000
  1       0.110134843552
  2       0.074967250596
  3       0.029541744154
  4      -0.255703714426
  5      -0.511708289444
  6      -0.071264235405
  7       0.700812304960
  8       0.540711919826
  9       0.040817769217
 10      -0.009025628493
 11       0.002179740059
 12       0.000000000000
 13       0.000000000000
 14      -0.000000000000
 15      -0.000000000000
 16       0.000000000000
 17       0.000000000000
 18       0.000000000000
 19      -0.000000000000
 20       0.000000000000
 21      -0.000000000000
 22       0.000000000000
 23      -0.000000000000
 24       0.000000000000
 25      -0.000000000000
 26      -0.000000000000
 27      -0.000000000000
 28       0.000000000000
 29      -0.000000000000
 30       0.000000000000
 31      -0.000000000000
 32       0.000000000000
 33      -0.000941790327
 34       0.000000000000
 35       0.000000000000
 36       0.001631228696
 37      -0.000000000000
 38      -0.000528735376
 39      -0.000000000000
 40      -0.000000000000
 41       0.000915796535
 42      -0.000000000000
 43       0.000016230574
 44       0.000000000000
 45       0.000000000000
 46      -0.000028112179
 47       0.000000000000
 48      -0.000026238976
 49      -0.000000000000
 50      -0.000000000000
 51       0.000045447239
 52       0.000000000000
 53       0.000000000000
 54      -0.000000000000
 55      -0.000000000000
 56       0.000000000000
 57      -0.000000000000
 58      -0.000000000000
 59       0.000000000000
 60       0.000000000000
 61      -0.000000000000
 62       0.000000000000
 63      -0.000000000000
 64       0.000000000000
 65       0.000000000000
 66      -0.000000000000
 67       0.000000136022
 68       0.000000000000
 69       0.000000000000
 70      -0.000000202770
 71       0.000000000000
 72       0.000000000000
 73       0.000000000000
 74      -0.000000268240
 75       0.000000000000
 Sym=     1a
 Ene= -7.49869511123957E+00
 Spin= Alpha
 Occup= 1.000000
  1      -0.000000000000
  2      -0.000000000000
  3       0.000000000000
  4      -0.000000000000
  5       0.000000000000
  6      -0.000000000000
  7       0.000000000000
  8       0.000000000000
  9      -0.000000000000
 10       0.000000000000
 11      -0.000000000000
 12      -0.405036741803
 13       0.000000000000
 14      -0.000000000000
 15       0.638381590801
 16      -0.000000000000
 17       0.000000000000
 18       0.406723032037
 19      -0.000000000000
 20      -0.000000000000
 21       0.116075852976
 22       0.000000000000
 23       0.000000000000
 24       0.005811178194
 25      -0.000000000000
 26      -0.000000000000
 27       0.000587569837
 28      -0.000000000000
 29       0.000000000000
 30      -0.000064614156
 31      -0.000000000000
 32      -0.000000000000
 33       0.000000000000
 34      -0.000000000000
 35      -0.000000000000
 36      -0.000000000000
 37       0.000000000000
 38      -0.000000000000
 39       0.000000000000
 40       0.000000000000
 41       0.000000000000
 42      -0.000000000000
 43       0.000000000000
 44       0.000000000000
 45       0.000000000000
 46       0.000000000000
 47      -0.000000000000
 48      -0.000000000000
 49      -0.000000000000
 50      -0.000000000000
 51      -0.000000000000
 52      -0.000000000000
 53       0.000000000000
 54       0.000223487503
 55       0.000000000000
 56       0.000000000000
 57       0.000000000000
 58       0.000288521126
 59       0.000000000000
 60       0.000000000000
 61      -0.000668664859
 62       0.000000000000
 63      -0.000000000000
 64      -0.000000000000
 65      -0.000863242622
 66      -0.000000000000
 67       0.000000000000
 68      -0.000000000000
 69       0.000000000000
 70       0.000000000000
 71      -0.000000000000
 72      -0.000000000000
 73       0.000000000000
 74       0.000000000000
 75       0.000000000000
 Sym=     1a
 Ene= -7.47539832783066E+00
 Spin= Alpha
 Occup= 1.000000
  1      -0.000000000000
  2       0.000000000000
  3      -0.000000000000
  4       0.000000000000
  5       0.000000000000
  6       0.000000000000
  7      -0.000000000000
  8      -0.000000000000
  9      -0.000000000000
 10      -0.000000000000
 11       0.000000000000
 12       0.000000000000
 13      -0.405279652129
 14       0.000000000000
 15      -0.000000000000
 16       0.638999688973
 17       0.000000000000
 18      -0.000000000000
 19       0.407395877003
 20      -0.000000000000
 21       0.000000000000
 22       0.114738486785
 23       0.000000000000
 24      -0.000000000000
 25       0.005471593177
 26      -0.000000000000
 27      -0.000000000000
 28       0.000558906954
 29       0.000000000000
 30      -0.000000000000
 31      -0.000063859602
 32      -0.000000000000
 33       0.000000000000
 34      -0.000000000000
 35       0.000000000000
 36      -0.000000000000
 37      -0.000000000000
 38       0.000000000000
 39      -0.000000000000
 40      -0.000000000000
 41       0.000000000000
 42       0.000000000000
 43      -0.000000000000
 44       0.000000000000
 45       0.000000000000
 46      -0.000000000000
 47      -0.000000000000
 48       0.000000000000
 49      -0.000000000000
 50      -0.000000000000
 51       0.000000000000
 52      -0.000000000000
 53       0.000000000000
 54       0.000000000000
 55       0.000075143784
 56       0.000000000000
 57      -0.000000000000
 58      -0.000000000000
 59       0.000291030623
 60      -0.000000000000
 61       0.000000000000
 62      -0.000223750616
 63      -0.000000000000
 64      -0.000000000000
 65      -0.000000000000
 66      -0.000866582411
 67       0.000000000000
 68       0.000000000000
 69       0.000000000000
 70      -0.000000000000
 71      -0.000000000000
 72      -0.000000000000
 73       0.000000000000
 74      -0.000000000000
 75       0.000000000000
 Sym=     1a
 Ene= -7.47539832783064E+00
 Spin= Alpha
 Occup= 1.000000
  1       0.000000000000
  2       0.000000000000
  3       0.000000000000
  4      -0.000000000000
  5      -0.000000000000
  6      -0.000000000000
  7       0.000000000000
  8       0.000000000000
  9       0.000000000000
 10      -0.000000000000
 11      -0.000000000000
 12       0.000000000000
 13       0.000000000000
 14      -0.405279652129
 15      -0.000000000000
 16      -0.000000000000
 17       0.638999688973
 18       0.000000000000
 19       0.000000000000
 20       0.407395877003
 21       0.000000000000
 22       0.000000000000
 23       0.114738486785
 24      -0.000000000000
 25      -0.000000000000
 26       0.005471593177
 27       0.000000000000
 28       0.000000000000
 29       0.000558906954
 30       0.000000000000
 31      -0.000000000000
 32      -0.000063859602
 33       0.000000000000
 34       0.000000000000
 35       0.000000000000
 36       0.000000000000
 37      -0.000000000000
 38       0.000000000000
 39      -0.000000000000
 40      -0.000000000000
 41      -0.000000000000
 42      -0.000000000000
 43      -0.000000000000
 44       0.000000000000
 45       0.000000000000
 46       0.000000000000
 47      -0.000000000000
 48      -0.000000000000
 49      -0.000000000000
 50      -0.000000000000
 51      -0.000000000000
 52      -0.000000000000
 53       0.000184063928
 54      -0.000000000000
 55       0.000000000000
 56      -0.000237625509
 57      -0.000000000000
 58      -0.000000000000
 59      -0.000000000000
 60      -0.000548074840
 61       0.000000000000
 62      -0.000000000000
 63       0.000707561576
 64       0.000000000000
 65      -0.000000000000
 66      -0.000000000000
 67       0.000000000000
 68      -0.000000000000
 69       0.000000000000
 70      -0.000000000000
 71      -0.000000000000
 72       0.000000000000
 73       0.000000000000
 74       0.000000000000
 75       0.000000000000
 Sym=     1a
 Ene= -3.23318052591690E+00
 Spin= Alpha
 Occup= 1.000000
  1       0.000474562515
  2       0.000323733795
  3       0.000146479516
  4      -0.001239050200
  5      -0.002105077935
  6      -0.000802487254
  7       0.004102768956
  8       0.005065574582
  9      -0.005603856431
 10      -0.001431553032
 11      -0.000155005169
 12       0.000000000000
 13      -0.000000000000
 14       0.000000000000
 15      -0.000000000000
 16       0.000000000000
 17      -0.000000000000
 18       0.000000000000
 19       0.000000000000
 20       0.000000000000
 21       0.000000000000
 22      -0.000000000000
 23       0.000000000000
 24      -0.000000000000
 25       0.000000000000
 26      -0.000000000000
 27       0.000000000000
 28       0.000000000000
 29       0.000000000000
 30      -0.000000000000
 31      -0.000000000000
 32      -0.000000000000
 33       0.429324268565
 34       0.000000000000
 35      -0.000000000000
 36      -0.743611446059
 37       0.000000000000
 38       0.105359741973
 39      -0.000000000000
 40       0.000000000000
 41      -0.182488426165
 42      -0.000000000000
 43       0.024353030782
 44      -0.000000000000
 45      -0.000000000000
 46      -0.042180686632
 47       0.000000000000
 48       0.000553653870
 49       0.000000000000
 50      -0.000000000000
 51      -0.000958956633
 52       0.000000000000
 53       0.000000000000
 54      -0.000000000000
 55      -0.000000000000
 56       0.000000000000
 57       0.000000000000
 58      -0.000000000000
 59      -0.000000000000
 60      -0.000000000000
 61       0.000000000000
 62       0.000000000000
 63      -0.000000000000
 64      -0.000000000000
 65       0.000000000000
 66       0.000000000000
 67      -0.000481589791
 68       0.000000000000
 69       0.000000000000
 70       0.000717911674
 71       0.000000000000
 72       0.000000000000
 73      -0.000000000000
 74       0.000949707876
 75       0.000000000000
 Sym=     1a
 Ene= -3.22769305158200E+00
 Spin= Alpha
 Occup= 1.000000
  1      -0.000000000000
  2      -0.000000000000
  3      -0.000000000000
  4       0.000000000000
  5       0.000000000000
  6      -0.000000000000
  7      -0.000000000000
  8       0.000000000000
  9      -0.000000000000
 10       0.000000000000
 11      -0.000000000000
 12      -0.000000000000
 13      -0.000000000000
 14      -0.000000000000
 15       0.000000000000
 16      -0.000000000000
 17       0.000000000000
 18      -0.000000000000
 19       0.000000000000
 20      -0.000000000000
 21       0.000000000000
 22      -0.000000000000
 23       0.000000000000
 24       0.000000000000
 25       0.000000000000
 26      -0.000000000000
 27       0.000000000000
 28      -0.000000000000
 29       0.000000000000
 30      -0.000000000000
 31       0.000000000000
 32      -0.000000000000
 33       0.000000000000
 34      -0.859104976598
 35       0.000000000000
 36       0.000000000000
 37       0.000000000000
 38       0.000000000000
 39      -0.210381612447
 40       0.000000000000
 41      -0.000000000000
 42       0.000000000000
 43       0.000000000000
 44      -0.048165224642
 45      -0.000000000000
 46      -0.000000000000
 47      -0.000000000000
 48       0.000000000000
 49      -0.001107772559
 50       0.000000000000
 51       0.000000000000
 52       0.000000000000
 53      -0.000000000000
 54       0.000000000000
 55       0.000000000000
 56      -0.000000000000
 57       0.000000000000
 58      -0.000000000000
 59       0.000000000000
 60       0.000000000000
 61      -0.000000000000
 62      -0.000000000000
 63       0.000000000000
 64      -0.000000000000
 65       0.000000000000
 66      -0.000000000000
 67      -0.000000000000
 68       0.000878237231
 69       0.000000000000
 70       0.000000000000
 71       0.000000000000
 72       0.000774532435
 73      -0.000000000000
 74       0.000000000000
 75       0.000000000000
 Sym=     1a
 Ene= -3.22769305158193E+00
 Spin= Alpha
 Occup= 1.000000
  1       0.000000000000
  2      -0.000000000000
  3       0.000000000000
  4      -0.000000000000
  5       0.000000000000
  6      -0.000000000000
  7       0.000000000000
  8       0.000000000000
  9      -0.000000000000
 10       0.000000000000
 11      -0.000000000000
 12       0.000000000000
 13       0.000000000000
 14       0.000000000000
 15       0.000000000000
 16       0.000000000000
 17       0.000000000000
 18      -0.000000000000
 19      -0.000000000000
 20      -0.000000000000
 21      -0.000000000000
 22      -0.000000000000
 23      -0.000000000000
 24      -0.000000000000
 25      -0.000000000000
 26      -0.000000000000
 27       0.000000000000
 28       0.000000000000
 29       0.000000000000
 30       0.000000000000
 31       0.000000000000
 32       0.000000000000
 33      -0.000000000000
 34       0.000000000000
 35      -0.000000000000
 36       0.000000000000
 37      -0.859104976598
 38       0.000000000000
 39      -0.000000000000
 40       0.000000000000
 41      -0.000000000000
 42      -0.210381612447
 43      -0.000000000000
 44       0.000000000000
 45      -0.000000000000
 46       0.000000000000
 47      -0.048165224642
 48       0.000000000000
 49      -0.000000000000
 50       0.000000000000
 51      -0.000000000000
 52      -0.001107772559
 53      -0.000000000000
 54       0.000000000000
 55      -0.000000000000
 56      -0.000000000000
 57      -0.000000000000
 58       0.000000000000
 59       0.000000000000
 60      -0.000000000000
 61       0.000000000000
 62       0.000000000000
 63       0.000000000000
 64       0.000000000000
 65      -0.000000000000
 66      -0.000000000000
 67       0.000000000000
 68      -0.000000000000
 69       0.000000000000
 70      -0.000000000000
 71       0.000414005001
 72      -0.000000000000
 73       0.000000000000
 74       0.000000000000
 75       0.001095354274
 Sym=     1a
 Ene= -3.21145111528224E+00
 Spin= Alpha
 Occup= 1.000000
  1       0.000000000000
  2       0.000000000000
  3      -0.000000000000
  4      -0.000000000000
  5       0.000000000000
  6      -0.000000000000
  7       0.000000000000
  8       0.000000000000
  9      -0.000000000000
 10      -0.000000000000
 11       0.000000000000
 12       0.000000000000
 13       0.000000000000
 14      -0.000000000000
 15      -0.000000000000
 16       0.000000000000
 17       0.000000000000
 18       0.000000000000
 19      -0.000000000000
 20      -0.000000000000
 21      -0.000000000000
 22       0.000000000000
 23      -0.000000000000
 24       0.000000000000
 25      -0.000000000000
 26       0.000000000000
 27       0.000000000000
 28      -0.000000000000
 29      -0.000000000000
 30      -0.000000000000
 31       0.000000000000
 32       0.000000000000
 33      -0.745156885049
 34       0.000000000000
 35       0.000000000000
 36      -0.430216528182
 37      -0.000000000000
 38      -0.181231602239
 39      -0.000000000000
 40      -0.000000000000
 41      -0.104634114341
 42      -0.000000000000
 43      -0.040446899075
 44       0.000000000000
 45      -0.000000000000
 46      -0.023352028069
 47       0.000000000000
 48      -0.000954111670
 49      -0.000000000000
 50       0.000000000000
 51      -0.000550856629
 52       0.000000000000
 53       0.000000000000
 54      -0.000000000000
 55       0.000000000000
 56       0.000000000000
 57      -0.000000000000
 58       0.000000000000
 59       0.000000000000
 60      -0.000000000000
 61       0.000000000000
 62       0.000000000000
 63      -0.000000000000
 64      -0.000000000000
 65       0.000000000000
 66      -0.000000000000
 67       0.000461074493
 68       0.000000000000
 69       0.000000000000
 70      -0.000412397564
 71       0.000000000000
 72       0.000000000000
 73       0.000000000000
 74       0.000545550698
 75       0.000000000000
 Sym=     1a
 Ene= -3.21145111528210E+00
 Spin= Alpha
 Occup= 1.000000
  1      -0.000000000000
  2       0.000000000000
  3      -0.000000000000
  4       0.000000000000
  5      -0.000000000000
  6       0.000000000000
  7      -0.000000000000
  8      -0.000000000000
  9       0.000000000000
 10      -0.000000000000
 11       0.000000000000
 12       0.000000000000
 13      -0.000000000000
 14       0.000000000000
 15      -0.000000000000
 16       0.000000000000
 17      -0.000000000000
 18       0.000000000000
 19       0.000000000000
 20       0.000000000000
 21      -0.000000000000
 22      -0.000000000000
 23      -0.000000000000
 24       0.000000000000
 25       0.000000000000
 26      -0.000000000000
 27      -0.000000000000
 28       0.000000000000
 29      -0.000000000000
 30       0.000000000000
 31      -0.000000000000
 32       0.000000000000
 33      -0.000000000000
 34       0.000000000000
 35      -0.860433056349
 36      -0.000000000000
 37       0.000000000000
 38       0.000000000000
 39       0.000000000000
 40      -0.209268228678
 41       0.000000000000
 42      -0.000000000000
 43       0.000000000000
 44      -0.000000000000
 45      -0.046704056138
 46      -0.000000000000
 47      -0.000000000000
 48      -0.000000000000
 49       0.000000000000
 50      -0.001101713258
 51       0.000000000000
 52      -0.000000000000
 53       0.000000000000
 54       0.000000000000
 55       0.000000000000
 56       0.000000000000
 57       0.000000000000
 58      -0.000000000000
 59       0.000000000000
 60       0.000000000000
 61       0.000000000000
 62      -0.000000000000
 63      -0.000000000000
 64      -0.000000000000
 65      -0.000000000000
 66      -0.000000000000
 67      -0.000000000000
 68       0.000000000000
 69       0.000291609114
 70       0.000000000000