[Molden Format]
[Title]
 Molden file created by orca_2mkl for BaseName=mol

[Atoms] AU
F    1   9          0.0000000000         0.0000000000         0.0000000000 
[GTO]
  1 0
s   9 1.0 
    74530.0000000000         0.3079017832
    11170.0000000000         0.5761512382
     2543.0000000000         0.9926868100
      721.0000000000         1.5922029266
      235.9000000000         2.3479998003
       85.6000000000         3.0232533111
       33.5500000000         3.0875610554
       13.9300000000         2.0456863027
        5.9150000000         0.5751121948
s   9 1.0 
    74530.0000000000        -0.1956982119
    11170.0000000000        -0.3685396020
     2543.0000000000        -0.6292211467
      721.0000000000        -1.0284113628
      235.9000000000        -1.5267583245
       85.6000000000        -2.1122793523
       33.5500000000        -2.3707673689
       13.9300000000        -2.2162960728
        5.9150000000        -0.8295990869
s   1 1.0 
        1.8430000000         1.1273378632
s   1 1.0 
        0.7124000000         0.5526536279
s   1 1.0 
        0.2637000000         0.2622664209
p   3 1.0 
       80.3900000000        10.7684583629
       18.6300000000        12.0589678658
        5.6940000000        10.4469692178
p   1 1.0 
        1.9530000000         3.2909242964
p   1 1.0 
        0.6702000000         0.8643619036
p   1 1.0 
        0.2166000000         0.2106265689
d   1 1.0 
        5.0140000000        47.8952738096
d   1 1.0 
        1.7250000000         7.4020328393
d   1 1.0 
        0.5860000000         1.1188990667
f   1 1.0 
        3.5620000000        99.3828365932
f   1 1.0 
        1.1480000000         7.7780248682
g   1 1.0 
        2.3760000000        71.1290727781

[5D]
[9G]
[MO]
 Sym=     1a
 Ene= -2.64055760845354E+01
 Spin= Alpha
 Occup= 1.000000
  1      -0.990608418621
  2       0.000665355938
  3      -0.018494811289
  4       0.002245693221
  5      -0.001033855586
  6      -0.000000000000
  7      -0.000000000000
  8       0.000000000000
  9      -0.000000000000
 10      -0.000000000000
 11      -0.000000000000
 12      -0.000000000000
 13      -0.000000000000
 14      -0.000000000000
 15      -0.000000000000
 16      -0.000000000000
 17      -0.000000000000
 18       0.000391856628
 19      -0.000000000000
 20      -0.000000000000
 21       0.000678715589
 22       0.000000000000
 23      -0.000101206860
 24       0.000000000000
 25      -0.000000000000
 26      -0.000175295424
 27       0.000000000000
 28       0.000046026792
 29      -0.000000000000
 30       0.000000000000
 31       0.000079720743
 32       0.000000000000
 33       0.000000000000
 34       0.000000000000
 35      -0.000000000000
 36      -0.000000000000
 37       0.000000000000
 38       0.000000000000
 39       0.000000000000
 40      -0.000000000000
 41       0.000000000000
 42      -0.000000000000
 43       0.000000000000
 44       0.000000000000
 45       0.000000000000
 46      -0.000000000000
 47      -0.000000189644
 48       0.000000000000
 49       0.000000000000
 50      -0.000000282705
 51      -0.000000000000
 52       0.000000000000
 53       0.000000000000
 54       0.000000373984
 55       0.000000000000
 Sym=     1a
 Ene= -1.67119356532488E+00
 Spin= Alpha
 Occup= 1.000000
  1      -0.000449367972
  2      -0.366609726692
  3      -0.304869174830
  4      -0.596656524726
  5      -0.252975411165
  6      -0.000000000000
  7       0.000000000000
  8       0.000000000000
  9      -0.000000000000
 10       0.000000000000
 11      -0.000000000000
 12       0.000000000000
 13      -0.000000000000
 14      -0.000000000000
 15       0.000000000000
 16       0.000000000000
 17       0.000000000000
 18       0.001060358747
 19       0.000000000000
 20       0.000000000000
 21       0.001836595224
 22      -0.000000000000
 23       0.005798627524
 24      -0.000000000000
 25       0.000000000000
 26       0.010043517486
 27      -0.000000000000
 28       0.004835958673
 29      -0.000000000000
 30      -0.000000000000
 31       0.008376126125
 32      -0.000000000000
 33      -0.000000000000
 34      -0.000000000000
 35       0.000000000000
 36      -0.000000000000
 37       0.000000000000
 38      -0.000000000000
 39       0.000000000000
 40       0.000000000000
 41       0.000000000000
 42      -0.000000000000
 43       0.000000000000
 44      -0.000000000000
 45      -0.000000000000
 46       0.000000000000
 47      -0.000033391789
 48      -0.000000000000
 49       0.000000000000
 50      -0.000049777540
 51      -0.000000000000
 52      -0.000000000000
 53      -0.000000000000
 54       0.000065849496
 55       0.000000000000
 Sym=     1a
 Ene= -8.43631553988205E-01
 Spin= Alpha
 Occup= 1.000000
  1      -0.000000000000
  2      -0.000000000000
  3      -0.000000000000
  4      -0.000000000000
  5      -0.000000000000
  6       0.000000000000
  7       0.206579498391
  8      -0.000000000000
  9       0.000000000000
 10       0.375214770389
 11       0.000000000000
 12      -0.000000000000
 13       0.452671812351
 14       0.000000000000
 15       0.000000000000
 16       0.206111581885
 17      -0.000000000000
 18       0.000000000000
 19       0.000000000000
 20      -0.000000000000
 21      -0.000000000000
 22      -0.000000000000
 23       0.000000000000
 24      -0.000000000000
 25      -0.000000000000
 26      -0.000000000000
 27      -0.000000000000
 28       0.000000000000
 29      -0.000000000000
 30       0.000000000000
 31      -0.000000000000
 32       0.000000000000
 33      -0.000000000000
 34      -0.000000000000
 35      -0.001842130213
 36       0.000000000000
 37      -0.000000000000
 38       0.000000000000
 39       0.002378179879
 40      -0.000000000000
 41       0.000000000000
 42      -0.004992150818
 43      -0.000000000000
 44       0.000000000000
 45      -0.000000000000
 46       0.006444838993
 47       0.000000000000
 48       0.000000000000
 49      -0.000000000000
 50      -0.000000000000
 51      -0.000000000000
 52      -0.000000000000
 53      -0.000000000000
 54       0.000000000000
 55       0.000000000000
 Sym=     1a
 Ene= -7.30105001525722E-01
 Spin= Alpha
 Occup= 1.000000
  1       0.000000000000
  2       0.000000000000
  3       0.000000000000
  4      -0.000000000000
  5       0.000000000000
  6       0.000000000000
  7       0.000000000000
  8      -0.202961785686
  9      -0.000000000000
 10       0.000000000000
 11      -0.363443428866
 12      -0.000000000000
 13       0.000000000000
 14      -0.441915460302
 15       0.000000000000
 16      -0.000000000000
 17      -0.240625372942
 18       0.000000000000
 19       0.000000000000
 20       0.000000000000
 21       0.000000000000
 22      -0.000000000000
 23      -0.000000000000
 24       0.000000000000
 25       0.000000000000
 26       0.000000000000
 27      -0.000000000000
 28      -0.000000000000
 29      -0.000000000000
 30      -0.000000000000
 31      -0.000000000000
 32       0.000000000000
 33       0.001462461524
 34      -0.000000000000
 35      -0.000000000000
 36       0.001888029709
 37       0.000000000000
 38       0.000000000000
 39       0.000000000000
 40       0.004198789251
 41       0.000000000000
 42      -0.000000000000
 43       0.005420613615
 44      -0.000000000000
 45      -0.000000000000
 46      -0.000000000000
 47       0.000000000000
 48       0.000000000000
 49       0.000000000000
 50       0.000000000000
 51       0.000000000000
 52      -0.000000000000
 53      -0.000000000000
 54       0.000000000000
 55       0.000000000000
 Sym=     1a
 Ene= -7.30105001525708E-01
 Spin= Alpha
 Occup= 1.000000
  1       0.000000000000
  2       0.000000000000
  3       0.000000000000
  4      -0.000000000000
  5       0.000000000000
  6       0.202961785686
  7      -0.000000000000
  8       0.000000000000
  9       0.363443428866
 10       0.000000000000
 11      -0.000000000000
 12       0.441915460302
 13       0.000000000000
 14       0.000000000000
 15       0.240625372942
 16       0.000000000000
 17      -0.000000000000
 18       0.000000000000
 19       0.000000000000
 20      -0.000000000000
 21       0.000000000000
 22       0.000000000000
 23       0.000000000000
 24      -0.000000000000
 25      -0.000000000000
 26       0.000000000000
 27      -0.000000000000
 28       0.000000000000
 29       0.000000000000
 30       0.000000000000
 31      -0.000000000000
 32      -0.000000000000
 33      -0.000000000000
 34      -0.000597047417
 35       0.000000000000
 36      -0.000000000000
 37      -0.000000000000
 38       0.002312354703
 39       0.000000000000
 40      -0.000000000000
 41      -0.001714148534
 42       0.000000000000
 43       0.000000000000
 44       0.000000000000
 45       0.006638868725
 46      -0.000000000000
 47      -0.000000000000
 48      -0.000000000000
 49       0.000000000000
 50      -0.000000000000
 51       0.000000000000
 52       0.000000000000
 53       0.000000000000
 54       0.000000000000
 55       0.000000000000
 Sym=     1a
 Ene= 6.31245347315412E-01
 Spin= Alpha
 Occup= 0.000000
  1      -0.000000000000
  2      -0.000000000000
  3      -0.000000000000
  4       0.000000000000
  5       0.000000000000
  6      -0.000000000000
  7       0.129597884972
  8       0.000000000000
  9       0.000000000000
 10       0.107090978265
 11      -0.000000000000
 12      -0.000000000000
 13       0.702761052498
 14      -0.000000000000
 15       0.000000000000
 16      -1.279644557445
 17       0.000000000000
 18      -0.000000000000
 19       0.000000000000
 20      -0.000000000000
 21       0.000000000000
 22      -0.000000000000
 23       0.000000000000
 24      -0.000000000000
 25       0.000000000000
 26       0.000000000000
 27      -0.000000000000
 28       0.000000000000
 29      -0.000000000000
 30       0.000000000000
 31      -0.000000000000
 32      -0.000000000000
 33      -0.000000000000
 34       0.000000000000
 35      -0.001295694496
 36       0.000000000000
 37      -0.000000000000
 38      -0.000000000000
 39       0.001672734401
 40       0.000000000000
 41      -0.000000000000
 42      -0.000162041961
 43      -0.000000000000
 44      -0.000000000000
 45      -0.000000000000
 46       0.000209195272
 47      -0.000000000000
 48      -0.000000000000
 49      -0.000000000000
 50      -0.000000000000
 51      -0.000000000000
 52       0.000000000000
 53       0.000000000000
 54       0.000000000000
 55       0.000000000000
 Sym=     1a
 Ene= 6.68088181903038E-01
 Spin= Alpha
 Occup= 0.000000
  1      -0.000000000000
  2      -0.000000000000
  3       0.000000000000
  4      -0.000000000000
  5       0.000000000000
  6       0.134907486920
  7      -0.000000000000
  8       0.000000000000
  9       0.106548811425
 10      -0.000000000000
 11       0.000000000000
 12       0.733219624357
 13       0.000000000000
 14       0.000000000000
 15      -1.279730557090
 16       0.000000000000
 17      -0.000000000000
 18       0.000000000000
 19      -0.000000000000
 20      -0.000000000000
 21      -0.000000000000
 22      -0.000000000000
 23      -0.000000000000
 24      -0.000000000000
 25       0.000000000000
 26      -0.000000000000
 27      -0.000000000000
 28       0.000000000000
 29       0.000000000000
 30      -0.000000000000
 31      -0.000000000000
 32       0.000000000000
 33       0.000000000000
 34      -0.000443787185
 35      -0.000000000000
 36       0.000000000000
 37      -0.000000000000
 38       0.001718780376
 39       0.000000000000
 40      -0.000000000000
 41      -0.000138214118
 42       0.000000000000
 43      -0.000000000000
 44       0.000000000000
 45       0.000535300978
 46       0.000000000000
 47      -0.000000000000
 48       0.000000000000
 49      -0.000000000000
 50       0.000000000000
 51      -0.000000000000
 52      -0.000000000000
 53      -0.000000000000
 54      -0.000000000000
 55       0.000000000000
 Sym=     1a
 Ene= 6.68088181903045E-01
 Spin= Alpha
 Occup= 0.000000
  1       0.000000000000
  2      -0.000000000000
  3      -0.000000000000
  4       0.000000000000
  5      -0.000000000000
  6      -0.000000000000
  7       0.000000000000
  8       0.134907486920
  9       0.000000000000
 10      -0.000000000000
 11       0.106548811425
 12       0.000000000000
 13      -0.000000000000
 14       0.733219624357
 15      -0.000000000000
 16       0.000000000000
 17      -1.279730557090
 18       0.000000000000
 19       0.000000000000
 20       0.000000000000
 21       0.000000000000
 22       0.000000000000
 23       0.000000000000
 24       0.000000000000
 25      -0.000000000000
 26      -0.000000000000
 27       0.000000000000
 28       0.000000000000
 29      -0.000000000000
 30      -0.000000000000
 31      -0.000000000000
 32       0.000000000000
 33      -0.001087052157
 34      -0.000000000000
 35      -0.000000000000
 36      -0.001403378301
 37       0.000000000000
 38       0.000000000000
 39       0.000000000000
 40      -0.000338554065
 41       0.000000000000
 42      -0.000000000000
 43      -0.000437071418
 44      -0.000000000000
 45      -0.000000000000
 46       0.000000000000
 47       0.000000000000
 48       0.000000000000
 49      -0.000000000000
 50       0.000000000000
 51      -0.000000000000
 52      -0.000000000000
 53      -0.000000000000
 54       0.000000000000
 55       0.000000000000
 Sym=     1a
 Ene= 7.36305458977732E-01
 Spin= Alpha
 Occup= 0.000000
  1      -0.074702728702
  2       0.100483400562
  3      -0.157922497249
  4       1.867549308714
  5      -1.931738288106
  6       0.000000000000
  7       0.000000000000
  8       0.000000000000
  9      -0.000000000000
 10       0.000000000000
 11      -0.000000000000
 12       0.000000000000
 13      -0.000000000000
 14       0.000000000000
 15      -0.000000000000
 16       0.000000000000
 17       0.000000000000
 18      -0.000114103774
 19       0.000000000000
 20       0.000000000000
 21      -0.000197633534
 22      -0.000000000000
 23      -0.005613996238
 24      -0.000000000000
 25       0.000000000000
 26      -0.009723726719
 27       0.000000000000
 28       0.009277073802
 29       0.000000000000
 30      -0.000000000000
 31       0.016068363171
 32      -0.000000000000
 33      -0.000000000000
 34      -0.000000000000
 35       0.000000000000
 36       0.000000000000
 37      -0.000000000000
 38       0.000000000000
 39      -0.000000000000
 40       0.000000000000
 41       0.000000000000
 42      -0.000000000000
 43      -0.000000000000
 44      -0.000000000000
 45      -0.000000000000
 46       0.000000000000
 47       0.000002265361
 48       0.000000000000
 49       0.000000000000
 50       0.000003377001
 51      -0.000000000000
 52       0.000000000000
 53       0.000000000000
 54      -0.000004467353
 55       0.000000000000
 Sym=     1a
 Ene= 1.53404188681813E+00
 Spin= Alpha
 Occup= 0.000000
  1      -0.004344280790
  2      -0.012119007694
  3      -0.023350653228
  4       0.031444194667
  5      -0.034622747484
  6      -0.000000000000
  7      -0.000000000000
  8      -0.000000000000
  9       0.000000000000
 10      -0.000000000000
 11       0.000000000000
 12      -0.000000000000
 13       0.000000000000
 14      -0.000000000000
 15      -0.000000000000
 16      -0.000000000000
 17      -0.000000000000
 18      -0.025958527668
 19      -0.000000000000
 20      -0.000000000000
 21      -0.044961488811
 22       0.000000000000
 23       0.050033114855
 24      -0.000000000000
 25      -0.000000000000
 26       0.086659896989
 27       0.000000000000
 28      -0.525083838621
 29       0.000000000000
 30       0.000000000000
 31      -0.909471886725
 32       0.000000000000
 33       0.000000000000
 34       0.000000000000
 35      -0.000000000000
 36      -0.000000000000
 37       0.000000000000
 38      -0.000000000000
 39       0.000000000000
 40       0.000000000000
 41      -0.000000000000
 42       0.000000000000
 43       0.000000000000
 44       0.000000000000
 45      -0.000000000000
 46       0.000000000000
 47       0.001256752653
 48      -0.000000000000
 49      -0.000000000000
 50       0.001873456241
 51      -0.000000000000
 52      -0.000000000000
 53      -0.000000000000
 54      -0.002478349653
 55       0.000000000000
 Sym=     1a
 Ene= 1.54670984938028E+00
 Spin= Alpha
 Occup= 0.000000
  1       0.000000000000
  2       0.000000000000
  3       0.000000000000
  4      -0.000000000000
  5       0.000000000000
  6       0.000000000000
  7      -0.000000000000
  8       0.000000000000
  9      -0.000000000000
 10       0.000000000000
 11      -0.000000000000
 12       0.000000000000
 13       0.000000000000
 14       0.000000000000
 15       0.000000000000
 16      -0.000000000000
 17       0.000000000000
 18      -0.000000000000
 19      -0.000000000000
 20       0.052144650087
 21       0.000000000000
 22       0.000000000000
 23       0.000000000000
 24      -0.000000000000
 25      -0.102092255464
 26       0.000000000000
 27       0.000000000000
 28      -0.000000000000
 29       0.000000000000
 30       1.051526971074
 31      -0.000000000000
 32       0.000000000000
 33       0.000000000000
 34       0.000000000000
 35       0.000000000000
 36       0.000000000000
 37       0.000000000000
 38       0.000000000000
 39      -0.000000000000
 40       0.000000000000
 41      -0.000000000000
 42      -0.000000000000
 43      -0.000000000000
 44      -0.000000000000
 45      -0.000000000000
 46       0.000000000000
 47       0.000000000000
 48      -0.000000000000
 49      -0.002292254324
 50      -0.000000000000
 51      -0.000000000000
 52       0.000000000000
 53       0.002021578294
 54       0.000000000000
 55       0.000000000000
 Sym=     1a
 Ene= 1.54670984938032E+00
 Spin= Alpha
 Occup= 0.000000
  1      -0.000000000000
  2       0.000000000000
  3       0.000000000000
  4      -0.000000000000
  5       0.000000000000
  6      -0.000000000000
  7      -0.000000000000
  8       0.000000000000
  9      -0.000000000000
 10      -0.000000000000
 11       0.000000000000
 12       0.000000000000
 13       0.000000000000
 14      -0.000000000000
 15      -0.000000000000
 16       0.000000000000
 17      -0.000000000000
 18       0.000000000000
 19       0.000000000000
 20       0.000000000000
 21       0.000000000000
 22       0.052144650087
 23      -0.000000000000
 24      -0.000000000000
 25       0.000000000000
 26      -0.000000000000
 27      -0.102092255464
 28       0.000000000000
 29       0.000000000000
 30       0.000000000000
 31       0.000000000000
 32       1.051526971074
 33      -0.000000000000
 34       0.000000000000
 35      -0.000000000000
 36       0.000000000000
 37      -0.000000000000
 38       0.000000000000
 39       0.000000000000
 40      -0.000000000000
 41      -0.000000000000
 42       0.000000000000
 43      -0.000000000000
 44       0.000000000000
 45      -0.000000000000
 46      -0.000000000000
 47      -0.000000000000
 48       0.000000000000
 49       0.000000000000
 50       0.000000000000
 51      -0.001080579051
 52      -0.000000000000
 53      -0.000000000000
 54      -0.000000000000
 55       0.002858943441
 Sym=     1a
 Ene= 1.58729748726841E+00
 Spin= Alpha
 Occup= 0.000000
  1      -0.000000000000
  2      -0.000000000000
  3      -0.000000000000
  4       0.000000000000
  5      -0.000000000000
  6       0.000000000000
  7      -0.000000000000
  8       0.000000000000
  9      -0.000000000000
 10       0.000000000000
 11      -0.000000000000
 12       0.000000000000
 13      -0.000000000000
 14       0.000000000000
 15      -0.000000000000
 16       0.000000000000
 17       0.000000000000
 18      -0.000000000000
 19       0.052680730313
 20      -0.000000000000
 21       0.000000000000
 22       0.000000000000
 23       0.000000000000
 24      -0.108721025405
 25      -0.000000000000
 26      -0.000000000000
 27       0.000000000000
 28       0.000000000000
 29       1.055250113636
 30      -0.000000000000
 31      -0.000000000000
 32       0.000000000000
 33      -0.000000000000
 34      -0.000000000000
 35      -0.000000000000
 36      -0.000000000000
 37       0.000000000000
 38      -0.000000000000
 39      -0.000000000000
 40      -0.000000000000
 41       0.000000000000
 42       0.000000000000
 43       0.000000000000
 44      -0.000000000000
 45       0.000000000000
 46      -0.000000000000
 47      -0.000000000000
 48      -0.000760830811
 49      -0.000000000000
 50      -0.000000000000
 51       0.000000000000
 52       0.002012969115
 53      -0.000000000000
 54       0.000000000000
 55       0.000000000000
 Sym=     1a
 Ene= 1.58729748726849E+00
 Spin= Alpha
 Occup= 0.000000
  1       0.000000000000
  2       0.000000000000
  3       0.000000000000
  4      -0.000000000000
  5       0.000000000000
  6       0.000000000000
  7      -0.000000000000
  8       0.000000000000
  9      -0.000000000000
 10       0.000000000000
 11       0.000000000000
 12       0.000000000000
 13       0.000000000000
 14       0.000000000000
 15      -0.000000000000
 16      -0.000000000000
 17      -0.000000000000
 18       0.045622850741
 19      -0.000000000000
 20      -0.000000000000
 21      -0.026340365157
 22       0.000000000000
 23      -0.094155169926
 24       0.000000000000
 25       0.000000000000
 26       0.054360512702
 27      -0.000000000000
 28       0.913873405755
 29       0.000000000000
 30       0.000000000000
 31      -0.527625056818
 32       0.000000000000
 33       0.000000000000
 34       0.000000000000
 35       0.000000000000
 36       0.000000000000
 37      -0.000000000000
 38      -0.000000000000
 39       0.000000000000
 40       0.000000000000
 41      -0.000000000000
 42      -0.000000000000
 43       0.000000000000
 44       0.000000000000
 45       0.000000000000
 46      -0.000000000000
 47      -0.001202979138
 48      -0.000000000000
 49       0.000000000000
 50      -0.001075977251
 51      -0.000000000000
 52       0.000000000000
 53       0.000000000000
 54      -0.001423384112
 55       0.000000000000
 Sym=     1a
 Ene= 3.13417816481984E+00
 Spin= Alpha
 Occup= 0.000000
  1      -0.000000000000
  2      -0.000000000000
  3      -0.000000000000
  4       0.000000000000
  5      -0.000000000000
  6       0.000000000000
  7      -0.211564963262
  8      -0.000000000000
  9      -0.000000000000
 10      -1.168221263181
 11       0.000000000000
 12       0.000000000000
 13       1.786682553132
 14       0.000000000000
 15      -0.000000000000
 16      -0.742825460808
 17      -0.000000000000
 18      -0.000000000000
 19       0.000000000000
 20      -0.000000000000
 21       0.000000000000
 22      -0.000000000000
 23       0.000000000000
 24       0.000000000000
 25      -0.000000000000
 26       0.000000000000
 27       0.000000000000
 28      -0.000000000000
 29      -0.000000000000
 30       0.000000000000
 31      -0.000000000000
 32       0.000000000000
 33       0.000000000000
 34       0.000000000000
 35       0.003453177207
 36      -0.000000000000
 37       0.000000000000
 38      -0.000000000000
 39      -0.004458032605
 40       0.000000000000
 41       0.000000000000
 42      -0.013525343598
 43       0.000000000000
 44       0.000000000000
 45      -0.000000000000
 46       0.017461143502
 47      -0.000000000000
 48      -0.000000000000
 49      -0.000000000000
 50       0.000000000000
 51      -0.000000000000
 52      -0.000000000000
 53      -0.000000000000
 54      -0.000000000000
 55       0.000000000000
 Sym=     1a
 Ene= 3.21357921250666E+00
 Spin= Alpha
 Occup= 0.000000
  1       0.000000000000
  2       0.000000000000
  3       0.000000000000
  4      -0.000000000000
  5       0.000000000000
  6      -0.212805123091
  7      -0.000000000000
  8       0.000000000000
  9      -1.172657736135
 10       0.000000000000
 11       0.000000000000
 12       1.778618467743
 13      -0.000000000000
 14       0.000000000000
 15      -0.732801395371
 16      -0.000000000000
 17      -0.000000000000
 18       0.000000000000
 19       0.000000000000
 20      -0.000000000000
 21      -0.000000000000
 22      -0.000000000000
 23      -0.000000000000
 24      -0.000000000000
 25       0.000000000000
 26       0.000000000000
 27       0.000000000000
 28       0.000000000000
 29      -0.000000000000
 30      -0.000000000000
 31      -0.000000000000
 32       0.000000000000
 33      -0.000000000000
 34       0.001185975273
 35      -0.000000000000
 36       0.000000000000
 37      -0.000000000000
 38      -0.004593262480
 39       0.000000000000
 40      -0.000000000000
 41      -0.004721061133
 42       0.000000000000
 43       0.000000000000
 44      -0.000000000000
 45       0.018284591146
 46       0.000000000000
 47       0.000000000000
 48       0.000000000000
 49      -0.000000000000
 50       0.000000000000
 51       0.000000000000
 52      -0.000000000000
 53      -0.000000000000
 54      -0.000000000000
 55       0.000000000000
 Sym=     1a
 Ene= 3.21357921250667E+00
 Spin= Alpha
 Occup= 0.000000
  1       0.000000000000
  2       0.000000000000
  3       0.000000000000
  4      -0.000000000000
  5       0.000000000000
  6      -0.000000000000
  7       0.000000000000
  8       0.212805123091
  9      -0.000000000000
 10       0.000000000000
 11       1.172657736135
 12       0.000000000000
 13      -0.000000000000
 14      -1.778618467743
 15      -0.000000000000
 16      -0.000000000000
 17       0.732801395371
 18      -0.000000000000
 19      -0.000000000000
 20       0.000000000000
 21       0.000000000000
 22       0.000000000000
 23      -0.000000000000
 24      -0.000000000000
 25       0.000000000000
 26       0.000000000000
 27       0.000000000000
 28       0.000000000000
 29       0.000000000000
 30       0.000000000000
 31      -0.000000000000
 32       0.000000000000
 33      -0.002905034266
 34       0.000000000000
 35       0.000000000000
 36      -0.003750383111
 37       0.000000000000
 38      -0.000000000000
 39       0.000000000000
 40       0.011564190821
 41      -0.000000000000
 42       0.000000000000
 43       0.014929306154
 44      -0.000000000000
 45       0.000000000000
 46      -0.000000000000
 47      -0.000000000000
 48      -0.000000000000
 49      -0.000000000000
 50       0.000000000000
 51       0.000000000000
 52      -0.000000000000
 53      -0.000000000000
 54      -0.000000000000
 55       0.000000000000
 Sym=     1a
 Ene= 4.43744084328645E+00
 Spin= Alpha
 Occup= 0.000000
  1      -0.000000000000
  2      -0.000000000000
  3      -0.000000000000
  4       0.000000000000
  5      -0.000000000000
  6      -0.000000000000
  7       0.000407307663
  8       0.000000000000
  9       0.000000000000
 10       0.021247217100
 11       0.000000000000
 12       0.000000000000
 13      -0.041275657369
 14       0.000000000000
 15      -0.000000000000
 16       0.014489724434
 17      -0.000000000000
 18      -0.000000000000
 19       0.000000000000
 20      -0.000000000000
 21       0.000000000000
 22      -0.000000000000
 23      -0.000000000000
 24      -0.000000000000
 25       0.000000000000
 26       0.000000000000
 27      -0.000000000000
 28       0.000000000000
 29      -0.000000000000
 30       0.000000000000
 31       0.000000000000
 32      -0.000000000000
 33      -0.000000000000
 34      -0.000000000000
 35       0.057159013943
 36      -0.000000000000
 37       0.000000000000
 38      -0.000000000000
 39      -0.073791969695
 40       0.000000000000
 41       0.000000000000
 42      -0.639026936891
 43      -0.000000000000
 44      -0.000000000000
 45       0.000000000000
 46       0.824980228120
 47      -0.000000000000
 48      -0.000000000000
 49      -0.000000000000
 50      -0.000000000000
 51      -0.000000000000
 52      -0.000000000000
 53      -0.000000000000
 54       0.000000000000
 55       0.000000000000
 Sym=     1a
 Ene= 4.44539897774293E+00
 Spin= Alpha
 Occup= 0.000000
  1       0.000000000000
  2       0.000000000000
  3       0.000000000000
  4      -0.000000000000
  5       0.000000000000
  6       0.000464971181
  7       0.000000000000
  8      -0.000000000000
  9       0.018327327638
 10      -0.000000000000
 11       0.000000000000
 12      -0.035248747270
 13      -0.000000000000
 14      -0.000000000000
 15       0.012394111540
 16       0.000000000000
 17       0.000000000000
 18      -0.000000000000
 19       0.000000000000
 20      -0.000000000000
 21       0.000000000000
 22       0.000000000000
 23      -0.000000000000
 24      -0.000000000000
 25       0.000000000000
 26      -0.000000000000
 27      -0.000000000000
 28       0.000000000000
 29       0.000000000000
 30      -0.000000000000
 31       0.000000000000
 32      -0.000000000000
 33      -0.000000000000
 34       0.023385239504
 35       0.000000000000
 36      -0.000000000000
 37      -0.000000000000
 38      -0.090570643148
 39      -0.000000000000
 40       0.000000000000
 41      -0.260919601357
 42       0.000000000000
 43       0.000000000000
 44       0.000000000000
 45       1.010537270758
 46       0.000000000000
 47      -0.000000000000
 48      -0.000000000000
 49      -0.000000000000
 50      -0.000000000000
 51       0.000000000000
 52       0.000000000000
 53       0.000000000000
 54       0.000000000000
 55       0.000000000000
 Sym=     1a
 Ene= 4.44539897774296E+00
 Spin= Alpha
 Occup= 0.000000
  1       0.000000000000
  2       0.000000000000
  3       0.000000000000
  4      -0.000000000000
  5       0.000000000000
  6       0.000000000000
  7       0.000000000000
  8      -0.000464971181
  9      -0.000000000000
 10      -0.000000000000
 11      -0.018327327638
 12      -0.000000000000
 13       0.000000000000
 14       0.035248747270
 15      -0.000000000000
 16      -0.000000000000
 17      -0.012394111540
 18       0.000000000000
 19      -0.000000000000
 20       0.000000000000
 21       0.000000000000
 22      -0.000000000000
 23      -0.000000000000
 24      -0.000000000000
 25       0.000000000000
 26      -0.000000000000
 27      -0.000000000000
 28       0.000000000000
 29       0.000000000000