
                                 *****************
                                 * O   R   C   A *
                                 *****************

           --- An Ab Initio, DFT and Semiempirical electronic structure package ---

                  #######################################################
                  #                        -***-                        #
                  #  Department of molecular theory and spectroscopy    #
                  #              Directorship: Frank Neese              #
                  # Max Planck Institute for Chemical Energy Conversion #
                  #                  D-45470 Muelheim/Ruhr              #
                  #                       Germany                       #
                  #                                                     #
                  #                  All rights reserved                #
                  #                        -***-                        #
                  #######################################################


                         Program Version 4.0.1.2 - RELEASE -


 With contributions from (in alphabetic order):
   Daniel Aravena         : Magnetic Properties
   Michael Atanasov       : Ab Initio Ligand Field Theory
   Ute Becker             : Parallelization
   Martin Brehm           : Molecular dynamics
   Dmytro Bykov           : SCF Hessian
   Vijay G. Chilkuri      : MRCI spin determinant printing
   Dipayan Datta          : RHF DLPNO-CCSD density
   Achintya Kumar Dutta   : EOM-CC, STEOM-CC
   Dmitry Ganyushin       : Spin-Orbit,Spin-Spin,Magnetic field MRCI
   Yang Guo               : DLPNO-NEVPT2, CIM, IAO-localization
   Andreas Hansen         : Spin unrestricted coupled pair/coupled cluster methods
   Lee Huntington         : MR-EOM, pCC
   Robert Izsak           : Overlap fitted RIJCOSX, COSX-SCS-MP3, EOM
   Christian Kollmar      : KDIIS, OOCD, Brueckner-CCSD(T), CCSD density
   Simone Kossmann        : Meta GGA functionals, TD-DFT gradient, OOMP2, MP2 Hessian
   Martin Krupicka        : AUTO-CI
   Dagmar Lenk            : GEPOL surface
   Dimitrios Liakos       : Extrapolation schemes; parallel MDCI
   Dimitrios Manganas     : ROCIS; embedding schemes
   Dimitrios Pantazis     : SARC Basis sets
   Taras Petrenko         : DFT Hessian,TD-DFT gradient, ASA, ECA, R-Raman, ABS, FL, XAS/XES, NRVS
   Peter Pinski           : DLPNO-MP2
   Christoph Reimann      : Effective Core Potentials
   Marius Retegan         : Local ZFS, SOC
   Christoph Riplinger    : Optimizer, TS searches, QM/MM, DLPNO-CCSD(T), (RO)-DLPNO pert. Triples
   Tobias Risthaus        : Range-separated hybrids, TD-DFT gradient, RPA, STAB
   Michael Roemelt        : Restricted open shell CIS
   Masaaki Saitow         : Open-shell DLPNO
   Barbara Sandhoefer     : DKH picture change effects
   Kantharuban Sivalingam : CASSCF convergence, NEVPT2, FIC-MRCI
   Georgi Stoychev        : AutoAux
   Boris Wezisla          : Elementary symmetry handling
   Frank Wennmohs         : Technical directorship


 We gratefully acknowledge several colleagues who have allowed us to
 interface, adapt or use parts of their codes:
   Stefan Grimme, W. Hujo, H. Kruse,             : VdW corrections, initial TS optimization,
                  C. Bannwarth                     DFT functionals, gCP, sTDA/sTD-DF
   Ed Valeev                                     : LibInt (2-el integral package), F12 methods
   Garnet Chan, S. Sharma, J. Yang, R. Olivares  : DMRG
   Ulf Ekstrom                                   : XCFun DFT Library
   Mihaly Kallay                                 : mrcc  (arbitrary order and MRCC methods)
   Andreas Klamt, Michael Diedenhofen            : otool_cosmo (COSMO solvation model)
   Jiri Pittner, Ondrej Demel                    : Mk-CCSD
   Frank Weinhold                                : gennbo (NPA and NBO analysis)
   Christopher J. Cramer and Donald G. Truhlar   : smd solvation model


 Your calculation uses the libint2 library for the computation of 2-el integrals
 For citations please refer to: http://libint.valeyev.net

 This ORCA versions uses:
   CBLAS   interface :  Fast vector & matrix operations
   LAPACKE interface :  Fast linear algebra routines
   SCALAPACK package :  Parallel linear algebra routines




*****************************************
The coordinations will be read from file: ../../../../chem_database/Ne.xyz
*****************************************


Your calculation utilizes the basis: def2-QZVP
   F. Weigend and R. Ahlrichs, Phys. Chem. Chem. Phys. 7, 3297 (2005).

================================================================================
                                        WARNINGS
                       Please study these warnings very carefully!
================================================================================

Warning: TCutStore was < 0. Adjusted to Thresh (uncritical)

INFO   : the flag for use of LIBINT has been found!

================================================================================
                                       INPUT FILE
================================================================================
NAME = mol.inp
|  1> # ================================================================
|  2> # Orca input file
|  3> # ================================================================
|  4> ! HF def2-QZVP VeryTightSCF UseSym
|  5> 
|  6> ! PAL4
|  7> 
|  8> %scf
|  9>   STABPerform true
| 10> #  STABRestartUHFifUnstable true
| 11> end
| 12> 
| 13> 
| 14> 
| 15> * xyzfile 0 1 ../../../../chem_database/Ne.xyz
| 16> 
| 17>                          ****END OF INPUT****
================================================================================

------------------------------------------------------------------------------
                            SYMMETRY HANDLING SETUP
------------------------------------------------------------------------------

------------------
SYMMETRY DETECTION
------------------
Preparing Data                    ... done
Detection Threshold:    SymThresh ... 1.0000e-04

Point Group will now be determined:
Moving molecule to center of mass ... done

POINT GROUP                       ... Kh

The coordinates will now be cleaned:
Structure cleanup requested       ... yes
Selected point group              ... Kh
Cleaning Tolerance      SymThresh ... 1.0000e-04

Cleaning coordinates              ... done

-----------------------------------------------
SYMMETRY-PERFECTED CARTESIAN COORDINATES (A.U.)
-----------------------------------------------
Warning (ORCA_SYM): Coordinates were not cleaned so far!

------------------
SYMMETRY REDUCTION
------------------
ORCA supports only abelian point groups.
It is now checked, if the determined point group is supported:
Point Group ( Kh    ) is          ... NOT supported
Reducing to abelian subgroup      ... D2h

(Re)building abelian point group:
Creating Character Table          ... done
Making direct product table       ... done
Constructing symmetry operations  ... done
Creating atom transfer table      ... done
Creating asymmetric unit          ... done

----------------------
ASYMMETRIC UNIT IN D2h
----------------------
  #  AT     MASS              COORDS (A.U.)             BAS
   0 Ne  20.1790   0.00000000   0.00000000   0.00000000   0

----------------------
SYMMETRY ADAPTED BASIS
----------------------
The coefficients for the symmetry adapted linear combinations (SALCS)
of basis functions will now be computed:
Number of basis functions         ...    57
Preparing memory                  ... done
Constructing Gamma(red)           ... done
Reducing Gamma(red)               ... done
Constructing SALCs                ... done
Checking SALC integrity           ... nothing suspicious
Normalizing SALCs                 ... done

Storing the symmetry object:
Symmetry file                     ... mol.sym.tmp
Writing symmetry information      ... done

                       ****************************
                       * Single Point Calculation *
                       ****************************

---------------------------------
CARTESIAN COORDINATES (ANGSTROEM)
---------------------------------
  Ne     0.000000    0.000000    0.000000

----------------------------
CARTESIAN COORDINATES (A.U.)
----------------------------
  NO LB      ZA    FRAG     MASS         X           Y           Z
   0 Ne   10.0000    0    20.179    0.000000    0.000000    0.000000

--------------------------------
INTERNAL COORDINATES (ANGSTROEM)
--------------------------------
 Ne     0   0   0     0.000000000000     0.00000000     0.00000000

---------------------------
INTERNAL COORDINATES (A.U.)
---------------------------
 Ne     0   0   0     0.000000000000     0.00000000     0.00000000

---------------------
BASIS SET INFORMATION
---------------------
There are 1 groups of distinct atoms

 Group   1 Type Ne  : 15s9p3d2f1g contracted to 7s4p3d2f1g pattern {8211111/6111/111/11/1}

Atom   0Ne   basis set group =>   1


           ************************************************************
           *        Program running with 4 parallel MPI-processes     *
           *              working on a common directory               *
           ************************************************************
------------------------------------------------------------------------------
                           ORCA GTO INTEGRAL CALCULATION
------------------------------------------------------------------------------

                         BASIS SET STATISTICS AND STARTUP INFO

 # of primitive gaussian shells          ...   30
 # of primitive gaussian functions       ...   80
 # of contracted shells                  ...   17
 # of contracted basis functions         ...   57
 Highest angular momentum                ...    4
 Maximum contraction depth               ...    8
 Integral package used                   ... LIBINT
 Integral threshhold            Thresh   ...  1.000e-12
 Primitive cut-off              TCut     ...  1.000e-14


------------------------------ INTEGRAL EVALUATION ----------------------------


 * One electron integrals 
 Pre-screening matrix                    ... done
 Shell pair data                         ... done (   0.000 sec)



           ************************************************************
           *        Program running with 4 parallel MPI-processes     *
           *              working on a common directory               *
           ************************************************************
-------------------------------------------------------------------------------
                                 ORCA SCF
-------------------------------------------------------------------------------

------------
SCF SETTINGS
------------
Hamiltonian:
 Ab initio Hamiltonian  Method          .... Hartree-Fock(GTOs)


General Settings:
 Integral files         IntName         .... mol
 Hartree-Fock type      HFTyp           .... RHF
 Total Charge           Charge          ....    0
 Multiplicity           Mult            ....    1
 Number of Electrons    NEL             ....   10
 Basis Dimension        Dim             ....   57
 Nuclear Repulsion      ENuc            ....      0.0000000000 Eh

 Symmetry handling      UseSym         .... ON
 Point group                           .... D2h
 Used point group                      .... D2h
 Number of irreps                      .... 8
   Irrep   Ag has   16 symmetry adapted basis functions (ofs=   0)
   Irrep  B1g has    5 symmetry adapted basis functions (ofs=  16)
   Irrep  B2g has    5 symmetry adapted basis functions (ofs=  21)
   Irrep  B3g has    5 symmetry adapted basis functions (ofs=  26)
   Irrep   Au has    2 symmetry adapted basis functions (ofs=  31)
   Irrep  B1u has    8 symmetry adapted basis functions (ofs=  33)
   Irrep  B2u has    8 symmetry adapted basis functions (ofs=  41)
   Irrep  B3u has    8 symmetry adapted basis functions (ofs=  49)

Convergence Acceleration:
 DIIS                   CNVDIIS         .... on
   Start iteration      DIISMaxIt       ....    12
   Startup error        DIISStart       ....  0.200000
   # of expansion vecs  DIISMaxEq       ....     5
   Bias factor          DIISBfac        ....   1.050
   Max. coefficient     DIISMaxC        ....  10.000
 Newton-Raphson         CNVNR           .... off
 SOSCF                  CNVSOSCF        .... on
   Start iteration      SOSCFMaxIt      ....   150
   Startup grad/error   SOSCFStart      ....  0.003300
 Level Shifting         CNVShift        .... on
   Level shift para.    LevelShift      ....    0.2500
   Turn off err/grad.   ShiftErr        ....    0.0010
 Zerner damping         CNVZerner       .... off
 Static damping         CNVDamp         .... on
   Fraction old density DampFac         ....    0.7000
   Max. Damping (<1)    DampMax         ....    0.9800
   Min. Damping (>=0)   DampMin         ....    0.0000
   Turn off err/grad.   DampErr         ....    0.1000
 Fernandez-Rico         CNVRico         .... off

SCF Procedure:
 Maximum # iterations   MaxIter         ....   125
 SCF integral mode      SCFMode         .... Direct
   Integral package                     .... LIBINT
 Reset frequeny         DirectResetFreq ....    20
 Integral Threshold     Thresh          ....  1.000e-12 Eh
 Primitive CutOff       TCut            ....  1.000e-14 Eh

Convergence Tolerance:
 Convergence Check Mode ConvCheckMode   .... Total+1el-Energy
 Convergence forced     ConvForced      .... 0
 Energy Change          TolE            ....  1.000e-09 Eh
 1-El. energy change                    ....  1.000e-06 Eh
 Orbital Gradient       TolG            ....  2.000e-06
 Orbital Rotation angle TolX            ....  2.000e-06
 DIIS Error             TolErr          ....  1.000e-08


Diagonalization of the overlap matrix:
Smallest eigenvalue                        ... 5.309e-03
Time for diagonalization                   ...    0.011 sec
Threshold for overlap eigenvalues          ... 1.000e-08
Number of eigenvalues below threshold      ... 0
Time for construction of square roots      ...    0.001 sec
Producing symmetrization matrix            ... done (   0.000 sec)
Total time needed                          ...    0.012 sec

-------------------
DFT GRID GENERATION
-------------------

General Integration Accuracy     IntAcc      ...  4.340
Radial Grid Type                 RadialGrid  ... Gauss-Chebyshev
Angular Grid (max. acc.)         AngularGrid ... Lebedev-110
Angular grid pruning method      GridPruning ... 3 (G Style)
Weight generation scheme         WeightScheme... Becke
Basis function cutoff            BFCut       ...    1.0000e-12
Integration weight cutoff        WCut        ...    1.0000e-14
Grids for H and He will be reduced by one unit

# of grid points (after initial pruning)     ...   1694 (   0.0 sec)
# of grid points (after weights+screening)   ...   1694 (   0.0 sec)
Grid point division into batches done        ...    0.0 sec
Reduced shell lists constructed in    0.0 sec

Total number of grid points                  ...     1694
Total number of batches                      ...       27
Average number of points per batch           ...       62
Average number of grid points per atom       ...     1694
Average number of shells per batch           ...     8.25 (48.53%)
Average number of basis functions per batch  ...    28.50 (50.00%)
Average number of large shells per batch     ...     6.25 (75.76%)
Average number of large basis fcns per batch ...    20.75 (72.81%)
Maximum spatial batch extension              ...  13.89, 25.65, 25.65 au
Average spatial batch extension              ...   3.17,  4.35,  5.34 au

Time for grid setup =    0.019 sec

------------------------------
INITIAL GUESS: MODEL POTENTIAL
------------------------------
Loading Hartree-Fock densities                     ... done
Calculating cut-offs                               ... done
Setting up the integral package                    ... done
Initializing the effective Hamiltonian             ... done
Starting the Coulomb interaction                   ... done (   0.0 sec)
Reading the grid                                   ... done
Mapping shells                                     ... done
Starting the XC term evaluation                    ... done (   0.0 sec)
done (   0.0 sec)
Diagonalizing the Hamiltonian                      ... done (   0.0 sec)
Back transforming the eigenvectors                 ... done (   0.0 sec)
Now organizing SCF variables                       ... done
The symmetry of the initial guess is 1-Ag
Irrep occupations for operator 0
    Ag -    2
   B1g -    0
   B2g -    0
   B3g -    0
    Au -    0
   B1u -    1
   B2u -    1
   B3u -    1
                      ------------------
                      INITIAL GUESS DONE (   0.2 sec)
                      ------------------
--------------
SCF ITERATIONS
--------------
ITER       Energy         Delta-E        Max-DP      RMS-DP      [F,P]     Damp
               ***  Starting incremental Fock matrix formation  ***
  0   -128.5267768766   0.000000000000 0.01316124  0.00067484  0.4731206 0.7000
  1   -128.5327113243  -0.005934447632 0.01184872  0.00053838  0.3349162 0.7000
  2   -128.5368559846  -0.004144660316 0.00925123  0.00039211  0.2369674 0.7000
                               ***Turning on DIIS***
  3   -128.5397725790  -0.002916594401 0.00707824  0.00028473  0.1681698 0.7000
  4   -128.4940109422   0.045761636821 0.00603514  0.00022341  0.1196765 0.7000
  5   -128.5055596900  -0.011548747839 0.01539921  0.00055705  0.0847527 0.0000
                      *** Initiating the SOSCF procedure ***
                           *** Shutting down DIIS ***
                      *** Re-Reading the Fockian *** 
                      *** Removing any level shift *** 
ITER      Energy       Delta-E        Grad      Rot      Max-DP    RMS-DP
  6   -128.54640183  -0.0408421391  0.000617  0.000617  0.000637  0.000026
               *** Restarting incremental Fock matrix formation ***
  7   -128.54684902  -0.0004471867  0.000165  0.000060  0.000155  0.000008
  8   -128.54684909  -0.0000000781  0.000040  0.000029  0.000037  0.000002
  9   -128.54684910  -0.0000000081  0.000007  0.000004  0.000007  0.000000
                 **** Energy Check signals convergence ****
              ***Rediagonalizing the Fockian in SOSCF/NRSCF***

               *****************************************************
               *                     SUCCESS                       *
               *           SCF CONVERGED AFTER  10 CYCLES          *
               *****************************************************


------------------------------------------------------------------------------
                          SCF STABILITY ANALYSIS                              
------------------------------------------------------------------------------


                       ****Iteration    0****

   Memory handling for direct AO based CIS:
   Memory per vector needed      ...     1 MB
   Memory needed                 ...     0 MB
   Memory available              ...  1024 MB
   Number of vectors per batch   ...  1024
   Number of batches             ...     1
   Time for densities:     0.000
   Using LibInt in JK Direct
   Time for K (Direct):     0.102
   Time for Sigma-Completion:     0.000
   Lowest Energy          :     0.834544485109
   Maximum Energy change  :     0.861323019303 (vector 2)
   Maximum residual norm  :     0.079105159659

                       ****Iteration    1****
   Time for densities:     0.000
   Using LibInt in JK Direct
   Time for K (Direct):     0.101
   Time for Sigma-Completion:     0.000
   Lowest Energy          :     0.760243544769
   Maximum Energy change  :     0.074300940340 (vector 0)
   Maximum residual norm  :     0.009958219866

                       ****Iteration    2****
   Time for densities:     0.000
   Using LibInt in JK Direct
   Time for K (Direct):     0.104
   Time for Sigma-Completion:     0.000
   Lowest Energy          :     0.749306952388
   Maximum Energy change  :     0.010936592381 (vector 0)
   Maximum residual norm  :     0.014291531971

                       ****Iteration    3****
   Time for densities:     0.000
   Using LibInt in JK Direct
   Time for K (Direct):     0.107
   Time for Sigma-Completion:     0.000
   Lowest Energy          :     0.737705719283
   Maximum Energy change  :     0.011601233106 (vector 0)
   Maximum residual norm  :     0.003176627021

                       ****Iteration    4****
   Time for densities:     0.000
   Using LibInt in JK Direct
   Time for K (Direct):     0.096
   Time for Sigma-Completion:     0.000
   Lowest Energy          :     0.736987536225
   Maximum Energy change  :     0.000718183057 (vector 0)
   Maximum residual norm  :     0.000055987656

      *** CONVERGENCE OF RESIDUAL NORM REACHED ***

----------------------------- 
SCF STABILITY ANALYSIS RESULT 
----------------------------- 

RHF/RKS->UHF/UKS - triplet - external

   Root    Eigenvalue (au) 
     0       0.736988 
     1       0.818337 
     2       0.818337 

Stability Analysis indicates a stable HF/KS wave function.


Total time for performing the stability analysis:     0.516sec


----------------
TOTAL SCF ENERGY
----------------

Total Energy       :         -128.54684910 Eh           -3497.93760 eV

Components:
Nuclear Repulsion  :            0.00000000 Eh               0.00000 eV
Electronic Energy  :         -128.54684910 Eh           -3497.93760 eV
One Electron Energy:         -182.58629472 Eh           -4968.42567 eV
Two Electron Energy:           54.03944562 Eh            1470.48807 eV

Virial components:
Potential Energy   :         -257.09369890 Eh           -6995.87521 eV
Kinetic Energy     :          128.54684980 Eh            3497.93761 eV
Virial Ratio       :            1.99999999


---------------
SCF CONVERGENCE
---------------

  Last Energy change         ...   -1.3321e-10  Tolerance :   1.0000e-09
  Last MAX-Density change    ...    3.3838e-07  Tolerance :   1.0000e-08
  Last RMS-Density change    ...    1.0484e-08  Tolerance :   1.0000e-09
  Last Orbital Gradient      ...    2.9575e-07  Tolerance :   2.0000e-06
  Last Orbital Rotation      ...    1.0687e-07  Tolerance :   2.0000e-06

             **** THE GBW FILE WAS UPDATED (mol.gbw) ****
             **** DENSITY FILE WAS UPDATED (mol.scfp.tmp) ****
             **** ENERGY FILE WAS UPDATED (mol.en.tmp) ****
----------------
ORBITAL ENERGIES
----------------

  NO   OCC          E(Eh)            E(eV)    Irrep 
   0   2.0000     -32.772339      -891.7807    1-Ag
   1   2.0000      -1.930320       -52.5267    2-Ag
   2   2.0000      -0.850347       -23.1391    1-B1u
   3   2.0000      -0.850347       -23.1391    1-B3u
   4   2.0000      -0.850347       -23.1391    1-B2u
   5   0.0000       0.436094        11.8667    2-B1u
   6   0.0000       0.436094        11.8667    2-B3u
   7   0.0000       0.436094        11.8667    2-B2u
   8   0.0000       0.797931        21.7128    3-Ag
   9   0.0000       1.870553        50.9003    3-B2u
  10   0.0000       1.870553        50.9003    3-B3u
  11   0.0000       1.870553        50.9003    3-B1u
  12   0.0000       1.997041        54.3422    1-B1g
  13   0.0000       1.997041        54.3422    1-B2g
  14   0.0000       1.997041        54.3422    1-B3g
  15   0.0000       1.997041        54.3422    4-Ag
  16   0.0000       1.997041        54.3422    5-Ag
  17   0.0000       4.591882       124.9515    6-Ag
  18   0.0000       5.903223       160.6349    1-Au
  19   0.0000       5.903223       160.6349    4-B1u
  20   0.0000       5.903223       160.6349    4-B3u
  21   0.0000       5.903223       160.6349    4-B2u
  22   0.0000       5.903223       160.6349    5-B3u
  23   0.0000       5.903223       160.6349    5-B2u
  24   0.0000       5.903223       160.6349    5-B1u
  25   0.0000       6.362063       173.1205    6-B2u
  26   0.0000       6.362063       173.1205    6-B3u
  27   0.0000       6.362063       173.1205    6-B1u
  28   0.0000       6.760618       183.9658    2-B1g
  29   0.0000       6.760618       183.9658    2-B3g
  30   0.0000       6.760618       183.9658    2-B2g
  31   0.0000       6.760618       183.9658    7-Ag
  32   0.0000       6.760618       183.9658    8-Ag
  33   0.0000      14.902447       405.5162    9-Ag
  34   0.0000      14.902447       405.5162    3-B3g
  35   0.0000      14.902447       405.5162    3-B1g
  36   0.0000      14.902447       405.5162    3-B2g
  37   0.0000      14.902447       405.5162   10-Ag
  38   0.0000      14.902447       405.5162   11-Ag
  39   0.0000      14.902447       405.5162    4-B3g
  40   0.0000      14.902447       405.5162    4-B1g
  41   0.0000      14.902447       405.5162    4-B2g
  42   0.0000      18.143613       493.7128   12-Ag
  43   0.0000      19.793375       538.6051    7-B3u
  44   0.0000      19.793375       538.6051    7-B2u
  45   0.0000      19.793375       538.6051    7-B1u
  46   0.0000      19.793375       538.6051    8-B1u
  47   0.0000      19.793375       538.6051    8-B3u
  48   0.0000      19.793375       538.6051    8-B2u
  49   0.0000      19.793375       538.6051    2-Au
  50   0.0000      20.953417       570.1715   13-Ag
  51   0.0000      20.953417       570.1715   14-Ag
  52   0.0000      20.953417       570.1715    5-B1g
  53   0.0000      20.953417       570.1715    5-B2g
  54   0.0000      20.953417       570.1715    5-B3g
  55   0.0000      65.344705      1778.1198   15-Ag
  56   0.0000     341.839603      9301.9285   16-Ag

                    ********************************
                    * MULLIKEN POPULATION ANALYSIS *
                    ********************************

-----------------------
MULLIKEN ATOMIC CHARGES
-----------------------
   0 Ne:   -0.000000
Sum of atomic charges:   -0.0000000

--------------------------------
MULLIKEN REDUCED ORBITAL CHARGES
--------------------------------
  0 Nes       :     4.000000  s :     4.000000
      pz      :     2.000000  p :     6.000000
      px      :     2.000000
      py      :     2.000000
      dz2     :     0.000000  d :     0.000000
      dxz     :     0.000000
      dyz     :     0.000000
      dx2y2   :     0.000000
      dxy     :     0.000000
      f0      :     0.000000  f :     0.000000
      f+1     :     0.000000
      f-1     :     0.000000
      f+2     :     0.000000
      f-2     :     0.000000
      f+3     :     0.000000
      f-3     :     0.000000
      g0      :     0.000000  g :     0.000000
      g+1     :     0.000000
      g-1     :     0.000000
      g+2     :     0.000000
      g-2     :     0.000000
      g+3     :     0.000000
      g-3     :     0.000000
      g+4     :     0.000000
      g-4     :     0.000000


                     *******************************
                     * LOEWDIN POPULATION ANALYSIS *
                     *******************************

----------------------
LOEWDIN ATOMIC CHARGES
----------------------
   0 Ne:   -0.000000

-------------------------------
LOEWDIN REDUCED ORBITAL CHARGES
-------------------------------
  0 Nes       :     4.000000  s :     4.000000
      pz      :     2.000000  p :     6.000000
      px      :     2.000000
      py      :     2.000000
      dz2     :     0.000000  d :     0.000000
      dxz     :     0.000000
      dyz     :     0.000000
      dx2y2   :     0.000000
      dxy     :     0.000000
      f0      :     0.000000  f :     0.000000
      f+1     :     0.000000
      f-1     :     0.000000
      f+2     :     0.000000
      f-2     :     0.000000
      f+3     :     0.000000
      f-3     :     0.000000
      g0      :     0.000000  g :     0.000000
      g+1     :     0.000000
      g-1     :     0.000000
      g+2     :     0.000000
      g-2     :     0.000000
      g+3     :     0.000000
      g-3     :     0.000000
      g+4     :     0.000000
      g-4     :     0.000000


                      *****************************
                      * MAYER POPULATION ANALYSIS *
                      *****************************

  NA   - Mulliken gross atomic population
  ZA   - Total nuclear charge
  QA   - Mulliken gross atomic charge
  VA   - Mayer's total valence
  BVA  - Mayer's bonded valence
  FA   - Mayer's free valence

  ATOM       NA         ZA         QA         VA         BVA        FA
  0 Ne    10.0000    10.0000    -0.0000    -0.0000     0.0000    -0.0000

  Mayer bond orders larger than 0.1


--------------------------
ATOM BASIS FOR ELEMENT Ne
--------------------------
 NewGTO Ne
 S 15
    1     160676.279550000007         0.000047686018
    2      23953.195038999998         0.000373036433
    3       5437.506371100000         0.001957331527
    4       1544.274102400000         0.008108086366
    5        507.888142690000         0.028169222024
    6        184.948477500000         0.083256310300
    7         72.522952039000         0.199792403981
    8         30.088713575000         0.350802368712
    9        120.684349400000         0.000054103794
   10         36.074294857000         0.000478582959
   11         13.052091210000         0.348537900896
   12          5.797478335300         0.125051948132
   13          2.047862689500         0.007147506501
   14          0.802145719900         0.000340714255
   15          0.305486722000         0.000251295763
 S 15
    1     160676.279550000007         0.000011352168
    2      23953.195038999998         0.000088805322
    3       5437.506371100000         0.000465963752
    4       1544.274102400000         0.001930216877
    5        507.888142690000         0.006705985274
    6        184.948477500000         0.019820057167
    7         72.522952039000         0.047562723525
    8         30.088713575000         0.083512264443
    9        120.684349400000         0.002833035413
   10         36.074294857000         0.025060025553
   11         13.052091210000         0.169963786951
   12          5.797478335300         0.043197878818
   13          2.047862689500        -0.361194343700
   14          0.802145719900        -0.558615317816
   15          0.305486722000        -0.225647950922
 P 9
    1        498.433974660000         0.000174981230
    2        118.141092170000         0.001469317189
    3         38.032529735000         0.007404270843
    4         14.183731950000         0.026432093239
    5          5.786419072100         0.067807618287
    6          2.459962216000         0.118774599730
    7          1.042199949800        -0.050501932536
    8          0.429877489200         0.782496787148
    9          0.168897084500        -1.435036144764
 end
-------------------------------------------
RADIAL EXPECTATION VALUES <R**-3> TO <R**3>
-------------------------------------------
   0 :     0.000000   187.180099     9.618029     0.157631     0.033470     0.008977
   1 :     0.000000    11.073079     1.632568     0.892063     0.966819     1.240653
   2 :     1.449447     0.442844     0.434194     3.006012     9.854360    34.056721
   3 :     1.449447     0.442844     0.434194     3.006012     9.854360    34.056721
   4 :    10.896844     3.058723     1.435353     0.965227     1.228135     1.978194
   5 :    10.896844     3.058723     1.435353     0.965227     1.228135     1.978194
   6 :    10.896844     3.058723     1.435353     0.965227     1.228135     1.978194
   7 :     1.449447     0.442844     0.434194     3.006012     9.854360    34.056721
   8 :     0.000000     2.908331     0.703953     1.999445     4.447518    10.514058
   9 :     5.034493     1.436995     0.840699     1.915048     4.831900    14.711898
  10 :     5.034493     1.436995     0.840699     1.915048     4.831900    14.711898
  11 :     5.034493     1.436995     0.840699     1.915048     4.831900    14.711898
  12 :     0.531586     0.568712     0.715005     1.515251     2.452714    21.023870
  13 :     0.531586     0.568712     0.715005     1.515251     2.452714    21.023870
  14 :     0.531586     0.568712     0.715005     1.515251     2.452714    21.023870
  15 :     0.531586     0.568712     0.715005     1.515251     2.452714    21.023870
  16 :     0.531586     0.568712     0.715005     1.515251     2.452714    21.023870
  17 :     0.000000    12.058382     1.479046     1.243948     2.091436     4.322192
  18 :     0.771487     0.793920     0.866877     1.213991     1.545531    14.397973
  19 :     0.771487     0.793920     0.866877     1.213991     1.545531    14.397973
  20 :     0.771487     0.793920     0.866877     1.213991     1.545531    14.397973
  21 :     0.771487     0.793920     0.866877     1.213991     1.545531    14.397973
  22 :     0.771487     0.793920     0.866877     1.213991     1.545531    14.397973
  23 :     0.771487     0.793920     0.866877     1.213991     1.545531    14.397973
  24 :     0.771487     0.793920     0.866877     1.213991     1.545531    14.397973
  25 :    37.017740     6.502280     1.885368     1.040650     1.833601     4.608801
  26 :    37.017740     6.502280     1.885368     1.040650     1.833601     4.608801
  27 :    37.017740     6.502280     1.885368     1.040650     1.833601     4.608801
  28 :     2.751051     1.711034     1.215810     0.985438     1.197789     8.882986
  29 :     2.751051     1.711034     1.215810     0.985438     1.197789     8.882986
  30 :     2.751051     1.711034     1.215810     0.985438     1.197789     8.882986
  31 :     2.751051     1.711034     1.215810     0.985438     1.197789     8.882986
  32 :     2.751051     1.711034     1.215810     0.985438     1.197789     8.882986
  33 :     1.670396     1.325778     1.119943     0.938605     0.921891     6.607678
  34 :     1.670396     1.325778     1.119943     0.938605     0.921891     6.607678
  35 :     1.670396     1.325778     1.119943     0.938605     0.921891     6.607678
  36 :     1.670396     1.325778     1.119943     0.938605     0.921891     6.607678
  37 :     1.670396     1.325778     1.119943     0.938605     0.921891     6.607678
  38 :     1.670396     1.325778     1.119943     0.938605     0.921891     6.607678
  39 :     1.670396     1.325778     1.119943     0.938605     0.921891     6.607678
  40 :     1.670396     1.325778     1.119943     0.938605     0.921891     6.607678
  41 :     1.670396     1.325778     1.119943     0.938605     0.921891     6.607678
  42 :     0.000000    43.493595     3.060450     0.686547     0.747904     1.196892
  43 :     5.215701     2.738080     1.575835     0.714550     0.593476     4.106782
  44 :     5.215701     2.738080     1.575835     0.714550     0.593476     4.106782
  45 :     5.215701     2.738080     1.575835     0.714550     0.593476     4.106782
  46 :     5.215701     2.738080     1.575835     0.714550     0.593476     4.106782
  47 :     5.215701     2.738080     1.575835     0.714550     0.593476     4.106782
  48 :     5.215701     2.738080     1.575835     0.714550     0.593476     4.106782
  49 :     5.215701     2.738080     1.575835     0.714550     0.593476     4.106782
  50 :    15.319004     5.265054     2.103491     0.603095     0.497190     2.841332
  51 :    15.319004     5.265054     2.103491     0.603095     0.497190     2.841332
  52 :    15.319004     5.265054     2.103491     0.603095     0.497190     2.841332
  53 :    15.319004     5.265054     2.103491     0.603095     0.497190     2.841332
  54 :    15.319004     5.265054     2.103491     0.603095     0.497190     2.841332
  55 :     0.000000   129.455883     6.676792     0.350539     0.241254     0.308021
  56 :     0.000000  1411.529685    23.212666     0.138359     0.060700     0.068934
-------
TIMINGS
-------

Total SCF time: 0 days 0 hours 0 min 2 sec 

Total time                  ....       2.593 sec
Sum of individual times     ....       2.564 sec  ( 98.9%)

Fock matrix formation       ....       1.836 sec  ( 70.8%)
Diagonalization             ....       0.005 sec  (  0.2%)
Density matrix formation    ....       0.009 sec  (  0.3%)
Population analysis         ....       0.006 sec  (  0.2%)
Initial guess               ....       0.144 sec  (  5.6%)
Orbital Transformation      ....       0.000 sec  (  0.0%)
Orbital Orthonormalization  ....       0.000 sec  (  0.0%)
DIIS solution               ....       0.003 sec  (  0.1%)
SOSCF solution              ....       0.026 sec  (  1.0%)
SCF Stability Analysis      ....       0.516 sec  ( 19.9%)

-------------------------   --------------------
FINAL SINGLE POINT ENERGY      -128.546849102126
-------------------------   --------------------


                            ***************************************
                            *     ORCA property calculations      *
                            ***************************************

                                    ---------------------
                                    Active property flags
                                    ---------------------
   (+) Dipole Moment


------------------------------------------------------------------------------
                       ORCA ELECTRIC PROPERTIES CALCULATION
------------------------------------------------------------------------------

Dipole Moment Calculation                       ... on
Quadrupole Moment Calculation                   ... off
Polarizability Calculation                      ... off
GBWName                                         ... mol.gbw
Electron density file                           ... mol.scfp.tmp
The origin for moment calculation is the CENTER OF MASS  = ( 0.000000,  0.000000  0.000000)

-------------
DIPOLE MOMENT
-------------
                                X             Y             Z
Electronic contribution:     -0.00000      -0.00000      -0.00000
Nuclear contribution   :      0.00000       0.00000       0.00000
                        -----------------------------------------
Total Dipole Moment    :     -0.00000      -0.00000      -0.00000
                        -----------------------------------------
Magnitude (a.u.)       :      0.00000
Magnitude (Debye)      :      0.00000


Timings for individual modules:

Sum of individual times         ...        4.125 sec (=   0.069 min)
GTO integral calculation        ...        1.308 sec (=   0.022 min)  31.7 %
SCF iterations                  ...        2.817 sec (=   0.047 min)  68.3 %
                             ****ORCA TERMINATED NORMALLY****
TOTAL RUN TIME: 0 days 0 hours 0 minutes 4 seconds 515 msec
