
                                 *****************
                                 * O   R   C   A *
                                 *****************

           --- An Ab Initio, DFT and Semiempirical electronic structure package ---

                  #######################################################
                  #                        -***-                        #
                  #  Department of molecular theory and spectroscopy    #
                  #              Directorship: Frank Neese              #
                  # Max Planck Institute for Chemical Energy Conversion #
                  #                  D-45470 Muelheim/Ruhr              #
                  #                       Germany                       #
                  #                                                     #
                  #                  All rights reserved                #
                  #                        -***-                        #
                  #######################################################


                         Program Version 4.0.1.2 - RELEASE -


 With contributions from (in alphabetic order):
   Daniel Aravena         : Magnetic Properties
   Michael Atanasov       : Ab Initio Ligand Field Theory
   Ute Becker             : Parallelization
   Martin Brehm           : Molecular dynamics
   Dmytro Bykov           : SCF Hessian
   Vijay G. Chilkuri      : MRCI spin determinant printing
   Dipayan Datta          : RHF DLPNO-CCSD density
   Achintya Kumar Dutta   : EOM-CC, STEOM-CC
   Dmitry Ganyushin       : Spin-Orbit,Spin-Spin,Magnetic field MRCI
   Yang Guo               : DLPNO-NEVPT2, CIM, IAO-localization
   Andreas Hansen         : Spin unrestricted coupled pair/coupled cluster methods
   Lee Huntington         : MR-EOM, pCC
   Robert Izsak           : Overlap fitted RIJCOSX, COSX-SCS-MP3, EOM
   Christian Kollmar      : KDIIS, OOCD, Brueckner-CCSD(T), CCSD density
   Simone Kossmann        : Meta GGA functionals, TD-DFT gradient, OOMP2, MP2 Hessian
   Martin Krupicka        : AUTO-CI
   Dagmar Lenk            : GEPOL surface
   Dimitrios Liakos       : Extrapolation schemes; parallel MDCI
   Dimitrios Manganas     : ROCIS; embedding schemes
   Dimitrios Pantazis     : SARC Basis sets
   Taras Petrenko         : DFT Hessian,TD-DFT gradient, ASA, ECA, R-Raman, ABS, FL, XAS/XES, NRVS
   Peter Pinski           : DLPNO-MP2
   Christoph Reimann      : Effective Core Potentials
   Marius Retegan         : Local ZFS, SOC
   Christoph Riplinger    : Optimizer, TS searches, QM/MM, DLPNO-CCSD(T), (RO)-DLPNO pert. Triples
   Tobias Risthaus        : Range-separated hybrids, TD-DFT gradient, RPA, STAB
   Michael Roemelt        : Restricted open shell CIS
   Masaaki Saitow         : Open-shell DLPNO
   Barbara Sandhoefer     : DKH picture change effects
   Kantharuban Sivalingam : CASSCF convergence, NEVPT2, FIC-MRCI
   Georgi Stoychev        : AutoAux
   Boris Wezisla          : Elementary symmetry handling
   Frank Wennmohs         : Technical directorship


 We gratefully acknowledge several colleagues who have allowed us to
 interface, adapt or use parts of their codes:
   Stefan Grimme, W. Hujo, H. Kruse,             : VdW corrections, initial TS optimization,
                  C. Bannwarth                     DFT functionals, gCP, sTDA/sTD-DF
   Ed Valeev                                     : LibInt (2-el integral package), F12 methods
   Garnet Chan, S. Sharma, J. Yang, R. Olivares  : DMRG
   Ulf Ekstrom                                   : XCFun DFT Library
   Mihaly Kallay                                 : mrcc  (arbitrary order and MRCC methods)
   Andreas Klamt, Michael Diedenhofen            : otool_cosmo (COSMO solvation model)
   Jiri Pittner, Ondrej Demel                    : Mk-CCSD
   Frank Weinhold                                : gennbo (NPA and NBO analysis)
   Christopher J. Cramer and Donald G. Truhlar   : smd solvation model


 Your calculation uses the libint2 library for the computation of 2-el integrals
 For citations please refer to: http://libint.valeyev.net

 This ORCA versions uses:
   CBLAS   interface :  Fast vector & matrix operations
   LAPACKE interface :  Fast linear algebra routines
   SCALAPACK package :  Parallel linear algebra routines




*****************************************
The coordinations will be read from file: ../../../../chem_database/B.xyz
*****************************************


Your calculation utilizes the basis: def2-QZVP
   F. Weigend and R. Ahlrichs, Phys. Chem. Chem. Phys. 7, 3297 (2005).

Your calculation utilizes the auxiliary basis: def2-QZVPP/C
   A. Hellweg, C. Hattig, S. Hofener and W. Klopper, Theor. Chem. Acc. 117, 587 (2007).

================================================================================
                                        WARNINGS
                       Please study these warnings very carefully!
================================================================================

Warning: TCutStore was < 0. Adjusted to Thresh (uncritical)

WARNING: your system is open-shell and RHF/RKS was chosen
  ===> : WILL SWITCH to UHF/UKS


WARNING: Post HF methods need fully converged wavefunctions
  ===> : Setting SCFConvForced true
         You can overwrite this default with %scf ConvForced false 


INFO   : the flag for use of LIBINT has been found!



*****************************************
The coordinations will be read from file: ../../../../chem_database/B.xyz
*****************************************


Your calculation utilizes the basis: def2-QZVP
   F. Weigend and R. Ahlrichs, Phys. Chem. Chem. Phys. 7, 3297 (2005).

================================================================================
                                        WARNINGS
                       Please study these warnings very carefully!
================================================================================


INFO   : the flag for use of LIBINT has been found!



*****************************************
The coordinations will be read from file: ../../../../chem_database/B.xyz
*****************************************


Your calculation utilizes the basis: def2-QZVP
   F. Weigend and R. Ahlrichs, Phys. Chem. Chem. Phys. 7, 3297 (2005).

================================================================================
                                        WARNINGS
                       Please study these warnings very carefully!
================================================================================


INFO   : the flag for use of LIBINT has been found!

================================================================================
                                       INPUT FILE
================================================================================
NAME = mol.inp
|  1> # ================================================================
|  2> # Orca input file
|  3> # ================================================================
|  4> ! RI-MP2 def2-QZVP def2-QZVPP/C VeryTightSCF
|  5> ! PAL4
|  6> 
|  7> %mp2
|  8>   density unrelaxed
|  9>   natorbs true
| 10> end
| 11> 
| 12> * xyzfile 0 2 ../../../../chem_database/B.xyz
| 13> 
| 14> 
| 15> $new_job
| 16> ! def2-QZVP VeryTightSCF
| 17> ! MOREAD
| 18> 
| 19> %moinp "mol.mp2nat"
| 20> 
| 21> %casscf
| 22>   nel  3
| 23>   norb 4
| 24>   PrintWF det
| 25> end
| 26> 
| 27> * xyzfile 0 2 ../../../../chem_database/B.xyz
| 28> 
| 29> 
| 30> $new_job
| 31> ! def2-QZVP VeryTightSCF
| 32> 
| 33> %casscf
| 34>   nel  3
| 35>   norb 4
| 36>   PrintWF csf
| 37> end
| 38> 
| 39> * xyzfile 0 2 ../../../../chem_database/B.xyz
| 40> 
| 41>                          ****END OF INPUT****
================================================================================


                 $$$$$$$$$$$$$$$$$$$$$$$$$$$$$$$$$$$$$$$$$$$$$$ 
                 $ THERE ARE  3 JOBS TO BE PROCESSED THIS RUN $
                 $$$$$$$$$$$$$$$$$$$$$$$$$$$$$$$$$$$$$$$$$$$$$$ 




                 $$$$$$$$$$$$$$$$  JOB NUMBER  1 $$$$$$$$$$$$$$


                       ****************************
                       * Single Point Calculation *
                       ****************************

---------------------------------
CARTESIAN COORDINATES (ANGSTROEM)
---------------------------------
  B      0.000000    0.000000    0.000000

----------------------------
CARTESIAN COORDINATES (A.U.)
----------------------------
  NO LB      ZA    FRAG     MASS         X           Y           Z
   0 B     5.0000    0    10.810    0.000000    0.000000    0.000000

--------------------------------
INTERNAL COORDINATES (ANGSTROEM)
--------------------------------
 B      0   0   0     0.000000000000     0.00000000     0.00000000

---------------------------
INTERNAL COORDINATES (A.U.)
---------------------------
 B      0   0   0     0.000000000000     0.00000000     0.00000000

---------------------
BASIS SET INFORMATION
---------------------
There are 1 groups of distinct atoms

 Group   1 Type B   : 15s8p3d2f1g contracted to 7s4p3d2f1g pattern {8211111/5111/111/11/1}

Atom   0B    basis set group =>   1

INFORMATION: There is an auxiliary basis set but the global RI flag is NOT set

-------------------------------
AUXILIARY BASIS SET INFORMATION
-------------------------------
There are 1 groups of distinct atoms

 Group   1 Type B   : 9s8p7d5f3g1h contracted to 9s8p7d5f3g1h pattern {111111111/11111111/1111111/11111/111/1}

Atom   0B    basis set group =>   1


           ************************************************************
           *        Program running with 4 parallel MPI-processes     *
           *              working on a common directory               *
           ************************************************************
------------------------------------------------------------------------------
                           ORCA GTO INTEGRAL CALCULATION
------------------------------------------------------------------------------

                         BASIS SET STATISTICS AND STARTUP INFO

 # of primitive gaussian shells          ...   29
 # of primitive gaussian functions       ...   77
 # of contracted shells                  ...   17
 # of contracted basis functions         ...   57
 Highest angular momentum                ...    4
 Maximum contraction depth               ...    8
 Integral package used                   ... LIBINT
 Integral threshhold            Thresh   ...  1.000e-12
 Primitive cut-off              TCut     ...  1.000e-14


------------------------------ INTEGRAL EVALUATION ----------------------------


 * One electron integrals 
 Pre-screening matrix                    ... done
 Shell pair data                         ... done (   0.000 sec)



           ************************************************************
           *        Program running with 4 parallel MPI-processes     *
           *              working on a common directory               *
           ************************************************************
-------------------------------------------------------------------------------
                                 ORCA SCF
-------------------------------------------------------------------------------

------------
SCF SETTINGS
------------
Hamiltonian:
 Ab initio Hamiltonian  Method          .... Hartree-Fock(GTOs)


General Settings:
 Integral files         IntName         .... mol
 Hartree-Fock type      HFTyp           .... UHF
 Total Charge           Charge          ....    0
 Multiplicity           Mult            ....    2
 Number of Electrons    NEL             ....    5
 Basis Dimension        Dim             ....   57
 Nuclear Repulsion      ENuc            ....      0.0000000000 Eh

Convergence Acceleration:
 DIIS                   CNVDIIS         .... on
   Start iteration      DIISMaxIt       ....    12
   Startup error        DIISStart       ....  0.200000
   # of expansion vecs  DIISMaxEq       ....     5
   Bias factor          DIISBfac        ....   1.050
   Max. coefficient     DIISMaxC        ....  10.000
 Newton-Raphson         CNVNR           .... off
 SOSCF                  CNVSOSCF        .... off
 Level Shifting         CNVShift        .... on
   Level shift para.    LevelShift      ....    0.2500
   Turn off err/grad.   ShiftErr        ....    0.0010
 Zerner damping         CNVZerner       .... off
 Static damping         CNVDamp         .... on
   Fraction old density DampFac         ....    0.7000
   Max. Damping (<1)    DampMax         ....    0.9800
   Min. Damping (>=0)   DampMin         ....    0.0000
   Turn off err/grad.   DampErr         ....    0.1000
 Fernandez-Rico         CNVRico         .... off

SCF Procedure:
 Maximum # iterations   MaxIter         ....   125
 SCF integral mode      SCFMode         .... Direct
   Integral package                     .... LIBINT
 Reset frequeny         DirectResetFreq ....    20
 Integral Threshold     Thresh          ....  1.000e-12 Eh
 Primitive CutOff       TCut            ....  1.000e-14 Eh

Convergence Tolerance:
 Convergence Check Mode ConvCheckMode   .... Total+1el-Energy
 Convergence forced     ConvForced      .... 1
 Energy Change          TolE            ....  1.000e-09 Eh
 1-El. energy change                    ....  1.000e-06 Eh
 DIIS Error             TolErr          ....  1.000e-08


Diagonalization of the overlap matrix:
Smallest eigenvalue                        ... 6.345e-03
Time for diagonalization                   ...    0.005 sec
Threshold for overlap eigenvalues          ... 1.000e-08
Number of eigenvalues below threshold      ... 0
Time for construction of square roots      ...    0.001 sec
Total time needed                          ...    0.006 sec

-------------------
DFT GRID GENERATION
-------------------

General Integration Accuracy     IntAcc      ...  4.340
Radial Grid Type                 RadialGrid  ... Gauss-Chebyshev
Angular Grid (max. acc.)         AngularGrid ... Lebedev-110
Angular grid pruning method      GridPruning ... 3 (G Style)
Weight generation scheme         WeightScheme... Becke
Basis function cutoff            BFCut       ...    1.0000e-12
Integration weight cutoff        WCut        ...    1.0000e-14
Grids for H and He will be reduced by one unit

# of grid points (after initial pruning)     ...   1678 (   0.0 sec)
# of grid points (after weights+screening)   ...   1678 (   0.0 sec)
Grid point division into batches done        ...    0.0 sec
Reduced shell lists constructed in    0.0 sec

Total number of grid points                  ...     1678
Total number of batches                      ...       27
Average number of points per batch           ...       62
Average number of grid points per atom       ...     1678
Average number of shells per batch           ...    10.50 (61.76%)
Average number of basis functions per batch  ...    41.00 (71.93%)
Average number of large shells per batch     ...     8.62 (82.14%)
Average number of large basis fcns per batch ...    32.62 (79.57%)
Maximum spatial batch extension              ...  20.06, 37.06, 37.06 au
Average spatial batch extension              ...   4.62,  6.28,  7.66 au

Time for grid setup =    0.016 sec

------------------------------
INITIAL GUESS: MODEL POTENTIAL
------------------------------
Loading Hartree-Fock densities                     ... done
Calculating cut-offs                               ... done
Setting up the integral package                    ... done
Initializing the effective Hamiltonian             ... done
Starting the Coulomb interaction                   ... done (   0.0 sec)
Reading the grid                                   ... done
Mapping shells                                     ... done
Starting the XC term evaluation                    ... done (   0.0 sec)
Transforming the Hamiltonian                       ... done (   0.0 sec)
Diagonalizing the Hamiltonian                      ... done (   0.0 sec)
Back transforming the eigenvectors                 ... done (   0.0 sec)
Now organizing SCF variables                       ... done
                      ------------------
                      INITIAL GUESS DONE (   0.2 sec)
                      ------------------
--------------
SCF ITERATIONS
--------------
ITER       Energy         Delta-E        Max-DP      RMS-DP      [F,P]     Damp
               ***  Starting incremental Fock matrix formation  ***
  0    -24.5234923395   0.000000000000 0.00511953  0.00016560  0.2350978 0.7000
  1    -24.5257372437  -0.002244904156 0.00456936  0.00015206  0.1700066 0.7000
                               ***Turning on DIIS***
  2    -24.5275243272  -0.001787083528 0.00370069  0.00012870  0.1219965 0.7000
  3    -24.5229381565   0.004586170661 0.01166796  0.00041842  0.0875314 0.0000
  4    -24.5325776453  -0.009639488758 0.00337859  0.00011583  0.0038219 0.0000
  5    -24.5319977221   0.000579923237 0.00324361  0.00010850  0.0025237 0.0000
  6    -24.5320526234  -0.000054901382 0.00253306  0.00006975  0.0013510 0.0000
  7    -24.5324794576  -0.000426834135 0.00229274  0.00005164  0.0006290 0.0000
  8    -24.5329504289  -0.000470971307 0.00040534  0.00000862  0.0000852 0.0000
  9    -24.5330792886  -0.000128859701 0.00003322  0.00000099  0.0000140 0.0000
 10    -24.5330887185  -0.000009429938 0.00000687  0.00000015  0.0000018 0.0000
 11    -24.5330887468  -0.000000028326 0.00000171  0.00000003  0.0000003 0.0000
 12    -24.5330888982  -0.000000151361 0.00000019  0.00000000  0.0000000 0.0000
                            ***DIIS convergence achieved***

               *****************************************************
               *                     SUCCESS                       *
               *           SCF CONVERGED AFTER  13 CYCLES          *
               *****************************************************


----------------
TOTAL SCF ENERGY
----------------

Total Energy       :          -24.53308892 Eh            -667.57929 eV

Components:
Nuclear Repulsion  :            0.00000000 Eh               0.00000 eV
Electronic Energy  :          -24.53308892 Eh            -667.57929 eV
One Electron Energy:          -32.36889339 Eh            -880.80237 eV
Two Electron Energy:            7.83580446 Eh             213.22308 eV

Virial components:
Potential Energy   :          -49.06636277 Eh           -1335.16361 eV
Kinetic Energy     :           24.53327385 Eh             667.58432 eV
Virial Ratio       :            1.99999246


---------------
SCF CONVERGENCE
---------------

  Last Energy change         ...   -2.6696e-08  Tolerance :   1.0000e-09
  Last MAX-Density change    ...    4.8844e-08  Tolerance :   1.0000e-08
  Last RMS-Density change    ...    1.6513e-09  Tolerance :   1.0000e-09
  Last DIIS Error            ...    1.0660e-08  Tolerance :   1.0000e-08

             **** THE GBW FILE WAS UPDATED (mol.gbw) ****
             **** DENSITY FILE WAS UPDATED (mol.scfp.tmp) ****
             **** ENERGY FILE WAS UPDATED (mol.en.tmp) ****
----------------------
UHF SPIN CONTAMINATION
----------------------

Expectation value of <S**2>     :     0.761159
Ideal value S*(S+1) for S=0.5   :     0.750000
Deviation                       :     0.011159

----------------
ORBITAL ENERGIES
----------------
                 SPIN UP ORBITALS
  NO   OCC          E(Eh)            E(eV) 
   0   1.0000      -7.701126      -209.5583 
   1   1.0000      -0.545157       -14.8345 
   2   1.0000      -0.318755        -8.6738 
   3   0.0000       0.036248         0.9864 
   4   0.0000       0.036248         0.9864 
   5   0.0000       0.145583         3.9615 
   6   0.0000       0.184807         5.0289 
   7   0.0000       0.184807         5.0289 
   8   0.0000       0.201992         5.4965 
   9   0.0000       0.398689        10.8489 
  10   0.0000       0.400111        10.8876 
  11   0.0000       0.400111        10.8876 
  12   0.0000       0.408164        11.1067 
  13   0.0000       0.408164        11.1067 
  14   0.0000       0.618370        16.8267 
  15   0.0000       0.652781        17.7631 
  16   0.0000       0.652781        17.7631 
  17   0.0000       1.139487        31.0070 
  18   0.0000       1.218742        33.1637 
  19   0.0000       1.218742        33.1637 
  20   0.0000       1.225928        33.3592 
  21   0.0000       1.225928        33.3592 
  22   0.0000       1.230097        33.4726 
  23   0.0000       1.230097        33.4726 
  24   0.0000       1.231463        33.5098 
  25   0.0000       1.323086        36.0030 
  26   0.0000       1.325271        36.0625 
  27   0.0000       1.325271        36.0625 
  28   0.0000       1.334515        36.3140 
  29   0.0000       1.334515        36.3140 
  30   0.0000       2.070583        56.3434 
  31   0.0000       2.084735        56.7285 
  32   0.0000       2.084735        56.7285 
  33   0.0000       3.393736        92.3482 
  34   0.0000       3.393736        92.3482 
  35   0.0000       3.407894        92.7335 
  36   0.0000       3.407894        92.7335 
  37   0.0000       3.418050        93.0099 
  38   0.0000       3.418050        93.0099 
  39   0.0000       3.424157        93.1760 
  40   0.0000       3.424157        93.1760 
  41   0.0000       3.426194        93.2315 
  42   0.0000       3.897992       106.0698 
  43   0.0000       3.897992       106.0698 
  44   0.0000       3.905283       106.2682 
  45   0.0000       3.905283       106.2682 
  46   0.0000       3.907812       106.3370 
  47   0.0000       3.941627       107.2571 
  48   0.0000       3.941627       107.2571 
  49   0.0000       3.955025       107.6217 
  50   0.0000       3.955025       107.6217 
  51   0.0000       3.963048       107.8400 
  52   0.0000       3.963048       107.8400 
  53   0.0000       3.965718       107.9127 
  54   0.0000       4.923451       133.9739 
  55   0.0000      19.074617       519.0467 
  56   0.0000     102.969728      2801.9488 

                 SPIN DOWN ORBITALS
  NO   OCC          E(Eh)            E(eV) 
   0   1.0000      -7.686110      -209.1497 
   1   1.0000      -0.446137       -12.1400 
   2   0.0000       0.044273         1.2047 
   3   0.0000       0.044273         1.2047 
   4   0.0000       0.075444         2.0529 
   5   0.0000       0.192574         5.2402 
   6   0.0000       0.192574         5.2402 
   7   0.0000       0.217028         5.9056 
   8   0.0000       0.226264         6.1569 
   9   0.0000       0.409149        11.1335 
  10   0.0000       0.409149        11.1335 
  11   0.0000       0.430822        11.7233 
  12   0.0000       0.430822        11.7233 
  13   0.0000       0.438976        11.9452 
  14   0.0000       0.661788        18.0082 
  15   0.0000       0.661788        18.0082 
  16   0.0000       0.700602        19.0643 
  17   0.0000       1.165571        31.7168 
  18   0.0000       1.219162        33.1751 
  19   0.0000       1.219162        33.1751 
  20   0.0000       1.243173        33.8285 
  21   0.0000       1.243173        33.8285 
  22   0.0000       1.257963        34.2309 
  23   0.0000       1.257963        34.2309 
  24   0.0000       1.262988        34.3676 
  25   0.0000       1.339206        36.4417 
  26   0.0000       1.339206        36.4417 
  27   0.0000       1.377241        37.4766 
  28   0.0000       1.377241        37.4766 
  29   0.0000       1.391189        37.8562 
  30   0.0000       2.093350        56.9630 
  31   0.0000       2.093350        56.9630 
  32   0.0000       2.136628        58.1406 
  33   0.0000       3.394250        92.3622 
  34   0.0000       3.394250        92.3622 
  35   0.0000       3.420097        93.0656 
  36   0.0000       3.420097        93.0656 
  37   0.0000       3.438924        93.5779 
  38   0.0000       3.438924        93.5779 
  39   0.0000       3.450378        93.8896 
  40   0.0000       3.450378        93.8896 
  41   0.0000       3.454224        93.9942 
  42   0.0000       3.903503       106.2197 
  43   0.0000       3.903503       106.2197 
  44   0.0000       3.942698       107.2863 
  45   0.0000       3.942698       107.2863 
  46   0.0000       3.944378       107.3320 
  47   0.0000       3.944378       107.3320 
  48   0.0000       3.956222       107.6543 
  49   0.0000       3.977527       108.2340 
  50   0.0000       3.977527       108.2340 
  51   0.0000       3.997771       108.7849 
  52   0.0000       3.997771       108.7849 
  53   0.0000       4.004586       108.9703 
  54   0.0000       4.942234       134.4850 
  55   0.0000      19.081741       519.2406 
  56   0.0000     102.971412      2801.9946 

                    ********************************
                    * MULLIKEN POPULATION ANALYSIS *
                    ********************************

--------------------------------------------
MULLIKEN ATOMIC CHARGES AND SPIN POPULATIONS
--------------------------------------------
   0 B :    0.000000    1.000000
Sum of atomic charges         :    0.0000000
Sum of atomic spin populations:    1.0000000

-----------------------------------------------------
MULLIKEN REDUCED ORBITAL CHARGES AND SPIN POPULATIONS
-----------------------------------------------------
CHARGE
  0 B s       :     3.994997  s :     3.994997
      pz      :     0.076386  p :     0.999989
      px      :     0.014853
      py      :     0.908750
      dz2     :     0.000743  d :     0.005003
      dxz     :     0.000017
      dyz     :     0.001042
      dx2y2   :     0.002998
      dxy     :     0.000203
      f0      :     0.000001  f :     0.000011
      f+1     :     0.000000
      f-1     :     0.000001
      f+2     :     0.000003
      f-2     :     0.000000
      f+3     :     0.000001
      f-3     :     0.000005
      g0      :     0.000000  g :     0.000000
      g+1     :     0.000000
      g-1     :     0.000000
      g+2     :     0.000000
      g-2     :     0.000000
      g+3     :     0.000000
      g-3     :     0.000000
      g+4     :     0.000000
      g-4     :     0.000000

SPIN
  0 B s       :    -0.001020  s :    -0.001020
      pz      :     0.076386  p :     0.999989
      px      :     0.014853
      py      :     0.908750
      dz2     :     0.000152  d :     0.001020
      dxz     :     0.000003
      dyz     :     0.000213
      dx2y2   :     0.000612
      dxy     :     0.000041
      f0      :     0.000001  f :     0.000011
      f+1     :     0.000000
      f-1     :     0.000001
      f+2     :     0.000003
      f-2     :     0.000000
      f+3     :     0.000001
      f-3     :     0.000005
      g0      :    -0.000000  g :    -0.000000
      g+1     :    -0.000000
      g-1     :    -0.000000
      g+2     :    -0.000000
      g-2     :    -0.000000
      g+3     :    -0.000000
      g-3     :    -0.000000
      g+4     :    -0.000000
      g-4     :    -0.000000


                     *******************************
                     * LOEWDIN POPULATION ANALYSIS *
                     *******************************

-------------------------------------------
LOEWDIN ATOMIC CHARGES AND SPIN POPULATIONS
-------------------------------------------
   0 B :    0.000000    1.000000

----------------------------------------------------
LOEWDIN REDUCED ORBITAL CHARGES AND SPIN POPULATIONS
----------------------------------------------------
CHARGE
  0 B s       :     3.994997  s :     3.994997
      pz      :     0.076386  p :     0.999989
      px      :     0.014853
      py      :     0.908750
      dz2     :     0.000743  d :     0.005003
      dxz     :     0.000017
      dyz     :     0.001042
      dx2y2   :     0.002998
      dxy     :     0.000203
      f0      :     0.000001  f :     0.000011
      f+1     :     0.000000
      f-1     :     0.000001
      f+2     :     0.000003
      f-2     :     0.000000
      f+3     :     0.000001
      f-3     :     0.000005
      g0      :     0.000000  g :     0.000000
      g+1     :     0.000000
      g-1     :     0.000000
      g+2     :     0.000000
      g-2     :     0.000000
      g+3     :     0.000000
      g-3     :     0.000000
      g+4     :     0.000000
      g-4     :     0.000000

SPIN
  0 B s       :    -0.001020  s :    -0.001020
      pz      :     0.076386  p :     0.999989
      px      :     0.014853
      py      :     0.908750
      dz2     :     0.000152  d :     0.001020
      dxz     :     0.000003
      dyz     :     0.000213
      dx2y2   :     0.000612
      dxy     :     0.000041
      f0      :     0.000001  f :     0.000011
      f+1     :     0.000000
      f-1     :     0.000001
      f+2     :     0.000003
      f-2     :     0.000000
      f+3     :     0.000001
      f-3     :     0.000005
      g0      :    -0.000000  g :    -0.000000
      g+1     :    -0.000000
      g-1     :    -0.000000
      g+2     :    -0.000000
      g-2     :    -0.000000
      g+3     :    -0.000000
      g-3     :    -0.000000
      g+4     :    -0.000000
      g-4     :    -0.000000


                      *****************************
                      * MAYER POPULATION ANALYSIS *
                      *****************************

  NA   - Mulliken gross atomic population
  ZA   - Total nuclear charge
  QA   - Mulliken gross atomic charge
  VA   - Mayer's total valence
  BVA  - Mayer's bonded valence
  FA   - Mayer's free valence

  ATOM       NA         ZA         QA         VA         BVA        FA
  0 B      5.0000     5.0000     0.0000     1.0223     0.0000     1.0223

  Mayer bond orders larger than 0.1


-------
TIMINGS
-------

Total SCF time: 0 days 0 hours 0 min 2 sec 

Total time                  ....       2.614 sec
Sum of individual times     ....       2.600 sec  ( 99.4%)

Fock matrix formation       ....       2.396 sec  ( 91.7%)
Diagonalization             ....       0.041 sec  (  1.6%)
Density matrix formation    ....       0.001 sec  (  0.0%)
Population analysis         ....       0.002 sec  (  0.1%)
Initial guess               ....       0.139 sec  (  5.3%)
Orbital Transformation      ....       0.000 sec  (  0.0%)
Orbital Orthonormalization  ....       0.000 sec  (  0.0%)
DIIS solution               ....       0.005 sec  (  0.2%)


           ************************************************************
           *        Program running with 4 parallel MPI-processes     *
           *              working on a common directory               *
           ************************************************************

------------------------------------------------------------------------------
                                ORCA  MP2 
------------------------------------------------------------------------------

Freezing NCore=2 chemical core electrons

---------------------
RI-MP2 ENERGY+DENSITY
---------------------
Dimension of the basis                    ...   57
Memory devoted to MP2                     ...  256 MB   
Data format for buffers                   ... DOUBLE
Compression type for matrix containers    ... UNCOMPRESSED
Overall scaling of the MP2 energy         ...   1.000e+00
Calculating two index integrals           ... done (    0.008 sec)
Cholesky decomposition of V**-1           ... done (    0.001 sec)

-----------------
RI-TRANSFORMATION (AUX index driven)
-----------------

Dimension of the orbital-basis         ... 57
Dimension of the aux-basis             ... 141
Transformation of internal MOs         ...    0-   2
Transformation of internal/external MOs...    0-   2 to    3-  56
Number Format for Storage              ... Double (8 Byte)
Integral mode                          ... Direct

First Phase: integral generation and transformation of MO indices
  Aux angular momentum 0               ... done (    0.000 sec)
  Aux angular momentum 1               ... done (    0.000 sec)
  Aux angular momentum 2               ... done (    0.000 sec)
  Aux angular momentum 3               ... done (    0.001 sec)
  Aux angular momentum 4               ... done (    0.001 sec)
  Aux angular momentum 5               ... done (    0.001 sec)
Closing buffer VIJ ( 0.00 GB; CompressionRatio= 0.80)
Closing buffer VIA ( 0.00 GB; CompressionRatio= 0.99)
  Phase 1 completed in     0.065 sec
Second Phase: sorting and transformation of aux index

IJ-Transformation
Memory available                       ... 256 MB 
Max. # MO pairs treated in a batch     ... 1    
# of internal orbitals                 ... 3
# batches for internal orbitals        ... 1
Closing buffer IJV ( 0.00 GB; CompressionRatio= 0.99)
(ij|v) transformation done in     0.000 sec

IA-Transformation
Memory available                       ... 256 MB 
Max. # MO pairs treated in a batch     ... 1    
# of internal orbitals                 ... 3
# batches for internal orbitals        ... 1
Closing buffer IAV ( 0.00 GB; CompressionRatio= 1.00)
(ia|v) transformation done in     0.000 sec

  Phase 2 completed in     0.001 sec
RI-Integral transformation completed in     0.066 sec

-----------------
RI-TRANSFORMATION (AUX index driven)
-----------------

Dimension of the orbital-basis         ... 57
Dimension of the aux-basis             ... 141
Transformation of internal MOs         ...    0-   1
Transformation of internal/external MOs...    0-   1 to    2-  56
Number Format for Storage              ... Double (8 Byte)
Integral mode                          ... Direct

First Phase: integral generation and transformation of MO indices
  Aux angular momentum 0               ... done (    0.000 sec)
  Aux angular momentum 1               ... done (    0.000 sec)
  Aux angular momentum 2               ... done (    0.000 sec)
  Aux angular momentum 3               ... done (    0.001 sec)
  Aux angular momentum 4               ... done (    0.001 sec)
  Aux angular momentum 5               ... done (    0.001 sec)
Closing buffer VIJ ( 0.00 GB; CompressionRatio= 0.67)
Closing buffer VIA ( 0.00 GB; CompressionRatio= 0.99)
  Phase 1 completed in     0.068 sec
Second Phase: sorting and transformation of aux index

IJ-Transformation
Memory available                       ... 256 MB 
Max. # MO pairs treated in a batch     ... 1    
# of internal orbitals                 ... 2
# batches for internal orbitals        ... 1
Closing buffer IJV ( 0.00 GB; CompressionRatio= 0.99)
(ij|v) transformation done in     0.000 sec

IA-Transformation
Memory available                       ... 256 MB 
Max. # MO pairs treated in a batch     ... 1    
# of internal orbitals                 ... 2
# batches for internal orbitals        ... 1
Closing buffer IAV ( 0.00 GB; CompressionRatio= 1.00)
(ia|v) transformation done in     0.000 sec

  Phase 2 completed in     0.001 sec
RI-Integral transformation completed in     0.069 sec
Opening buffers                              ... done

Starting loop over batches of integrals:

Operator 0  - window                       ... (  1-  2)x(  3- 56)
Operator 0  - Memory available             ...   256 MB
Operator 0  - Memory needed per MO         ...   0.1 MB
Operator 0  - Number of orbitals per batch ... 1
Operator 0  - Number of batches            ... 1

OPERATOR  0   PASS   0:  MOs     1 ...    1 +    2 ...    2
  Reading integrals       ... ok

Operator 1  - window                       ... (  1-  1)x(  2- 56)
Operator 1  - Memory available             ...   256 MB
Operator 1  - Memory needed per MO         ...   0.1 MB
Operator 1  - Number of orbitals per batch ... 1
Operator 1  - Number of batches            ... 1

OPERATOR  1   PASS   0:  MOs     1 ...    1
  Reading integrals       ... ok
Time spent in pair loops =     0.001 sec
Deleting buffer (Ka|jb)[aa] ...done
Deleting buffer (Ka|jb)[ab] ...done
Deleting buffer (Ka|jb)[ba] ...done
Deleting buffer (Ka|jb)[bb] ...done

Correlation energy components}
 E2 and T2 for alpha/alpha pairs :     -0.003380800 Eh      0.000000000
 E2 and T2 for beta/beta   pairs :      0.000000000 Eh      0.000000000
 E2 and T2 for alpha/beta  pairs :     -0.043319408 Eh      0.000000000


-----------------------------------------------
 RI-MP2 CORRELATION ENERGY:     -0.046700208 Eh
-----------------------------------------------


---------------------
MP2 DENSITY FORMATION
---------------------

Completing the external part of the density      ... done
Storing the unrelaxed density                    ... done

Trace of the density to be diagonalized =  5.000000
Sum of eigenvalues =  5.000000
Natural Orbital Occupation Numbers:
N[  0] =   1.99999644
N[  1] =   1.95167896
N[  2] =   0.99182306
N[  3] =   0.01540497
N[  4] =   0.01540497
N[  5] =   0.00843537
N[  6] =   0.00383634
N[  7] =   0.00315848
N[  8] =   0.00315848
N[  9] =   0.00304544
N[ 10] =   0.00056567
N[ 11] =   0.00056567
N[ 12] =   0.00030879
N[ 13] =   0.00026970
N[ 14] =   0.00026970
N[ 15] =   0.00018873
N[ 16] =   0.00018873
N[ 17] =   0.00018818
N[ 18] =   0.00017970
N[ 19] =   0.00016274
N[ 20] =   0.00016274
N[ 21] =   0.00013738
N[ 22] =   0.00012160
N[ 23] =   0.00012160
N[ 24] =   0.00006441
N[ 25] =   0.00006441
N[ 26] =   0.00003806
N[ 27] =   0.00003806
N[ 28] =   0.00003163
N[ 29] =   0.00002610
N[ 30] =   0.00002473
N[ 31] =   0.00002473
N[ 32] =   0.00002258
N[ 33] =   0.00002258
N[ 34] =   0.00002052
N[ 35] =   0.00002052
N[ 36] =   0.00002010
N[ 37] =   0.00001828
N[ 38] =   0.00001828
N[ 39] =   0.00001736
N[ 40] =   0.00001736
N[ 41] =   0.00001692
N[ 42] =   0.00001607
N[ 43] =   0.00001607
N[ 44] =   0.00001493
N[ 45] =   0.00001493
N[ 46] =   0.00001241
N[ 47] =   0.00000960
N[ 48] =   0.00000960
N[ 49] =   0.00000749
N[ 50] =   0.00000749
N[ 51] =   0.00000498
N[ 52] =   0.00000498
N[ 53] =   0.00000064
N[ 54] =   0.00000039
N[ 55] =   0.00000039
N[ 56] =   0.00000001

                *********************************************
                * UNRELAXED MP2 DENSITY POPULATION ANALYSIS *
                *********************************************

------------------------------------------------------------------------------
                           ORCA POPULATION ANALYSIS
------------------------------------------------------------------------------
Input electron density              ... mol.pmp2ur
Input spin density                  ... mol.rmp2ur
BaseName (.gbw .S,...)              ... mol

                    ********************************
                    * MULLIKEN POPULATION ANALYSIS *
                    ********************************

------------------------------------------
MULLIKEN ATOMIC CHARGES AND SPIN DENSITIES
------------------------------------------
   0 B :    0.000000    1.000000
Sum of atomic charges       :    0.0000000
Sum of atomic spin densities:    1.0000000

---------------------------------------------------
MULLIKEN REDUCED ORBITAL CHARGES AND SPIN DENSITIES
---------------------------------------------------
CHARGE
  0 B s       :     3.956886  s :     3.956886
      pz      :     0.090505  p :     1.026543
      px      :     0.030234
      py      :     0.905803
      dz2     :     0.002190  d :     0.015236
      dxz     :     0.000864
      dyz     :     0.003931
      dx2y2   :     0.005026
      dxy     :     0.003224
      f0      :     0.000138  f :     0.001167
      f+1     :     0.000096
      f-1     :     0.000195
      f+2     :     0.000163
      f-2     :     0.000173
      f+3     :     0.000200
      f-3     :     0.000202
      g0      :     0.000016  g :     0.000169
      g+1     :     0.000012
      g-1     :     0.000021
      g+2     :     0.000018
      g-2     :     0.000018
      g+3     :     0.000020
      g-3     :     0.000020
      g+4     :     0.000022
      g-4     :     0.000022

SPIN
  0 B s       :     0.005225  s :     0.005225
      pz      :     0.074660  p :     0.987821
      px      :     0.013685
      py      :     0.899476
      dz2     :     0.000793  d :     0.006537
      dxz     :     0.000143
      dyz     :     0.001936
      dx2y2   :     0.001878
      dxy     :     0.001787
      f0      :     0.000037  f :     0.000375
      f+1     :     0.000010
      f-1     :     0.000070
      f+2     :     0.000054
      f-2     :     0.000053
      f+3     :     0.000073
      f-3     :     0.000077
      g0      :     0.000003  g :     0.000041
      g+1     :     0.000001
      g-1     :     0.000006
      g+2     :     0.000004
      g-2     :     0.000004
      g+3     :     0.000005
      g-3     :     0.000005
      g+4     :     0.000006
      g-4     :     0.000006


                     *******************************
                     * LOEWDIN POPULATION ANALYSIS *
                     *******************************

-----------------------------------------
LOEWDIN ATOMIC CHARGES AND SPIN DENSITIES
-----------------------------------------
   0 B :    0.000000    1.000000

--------------------------------------------------
LOEWDIN REDUCED ORBITAL CHARGES AND SPIN DENSITIES
--------------------------------------------------
CHARGE
  0 B s       :     3.956886  s :     3.956886
      pz      :     0.090505  p :     1.026543
      px      :     0.030234
      py      :     0.905803
      dz2     :     0.002190  d :     0.015236
      dxz     :     0.000864
      dyz     :     0.003931
      dx2y2   :     0.005026
      dxy     :     0.003224
      f0      :     0.000138  f :     0.001167
      f+1     :     0.000096
      f-1     :     0.000195
      f+2     :     0.000163
      f-2     :     0.000173
      f+3     :     0.000200
      f-3     :     0.000202
      g0      :     0.000016  g :     0.000169
      g+1     :     0.000012
      g-1     :     0.000021
      g+2     :     0.000018
      g-2     :     0.000018
      g+3     :     0.000020
      g-3     :     0.000020
      g+4     :     0.000022
      g-4     :     0.000022

SPIN
  0 B s       :     0.005225  s :     0.005225
      pz      :     0.074660  p :     0.987821
      px      :     0.013685
      py      :     0.899476
      dz2     :     0.000793  d :     0.006537
      dxz     :     0.000143
      dyz     :     0.001936
      dx2y2   :     0.001878
      dxy     :     0.001787
      f0      :     0.000037  f :     0.000375
      f+1     :     0.000010
      f-1     :     0.000070
      f+2     :     0.000054
      f-2     :     0.000053
      f+3     :     0.000073
      f-3     :     0.000077
      g0      :     0.000003  g :     0.000041
      g+1     :     0.000001
      g-1     :     0.000006
      g+2     :     0.000004
      g-2     :     0.000004
      g+3     :     0.000005
      g-3     :     0.000005
      g+4     :     0.000006
      g-4     :     0.000006


                      *****************************
                      * MAYER POPULATION ANALYSIS *
                      *****************************

  NA   - Mulliken gross atomic population
  ZA   - Total nuclear charge
  QA   - Mulliken gross atomic charge
  VA   - Mayer's total valence
  BVA  - Mayer's bonded valence
  FA   - Mayer's free valence

  ATOM       NA         ZA         QA         VA         BVA        FA
  0 B      5.0000     5.0000     0.0000     1.2067     0.0000     1.2067




-------
TIMINGS
-------

Total time                :    0.181 sec
Integral trafo            :    0.150 sec ( 82.7%)
I/O of integrals          :    0.000 sec (  0.0%)
K(i,j) Operators          :    0.000 sec (  0.1%)
T(i,j) pair energies      :    0.000 sec (  0.0%)
V-calculation             :    0.008 sec (  4.4%)
V**(-1/2)                 :    0.001 sec (  0.4%)
Gamma(ia|P)               :    0.000 sec (  0.0%)
Gamma-Trafo               :    0.000 sec (  0.0%)
D(virtual)                :    0.000 sec (  0.0%)
D(internal)               :    0.000 sec (  0.0%)
W(virtual)                :    0.000 sec (  0.0%)
W(internal)               :    0.000 sec (  0.0%)
L(virtual)                :    0.000 sec (  0.0%)
L(internal)               :    0.000 sec (  0.0%)
G(D)                      :    0.000 sec (  0.0%)
G(Z)                      :    0.000 sec (  0.0%)
Z-Vector Solution         :    0.000 sec (  0.0%)
3-Index Derivative        :    0.000 sec (  0.0%)
2-Index Derivative        :    0.000 sec (  0.0%)
Separable Gradient        :    0.000 sec (  0.0%)


---------------------------------------
MP2 TOTAL ENERGY:      -24.579789133 Eh
---------------------------------------

-------------------------   --------------------
FINAL SINGLE POINT ENERGY       -24.579789132762
-------------------------   --------------------


                            ***************************************
                            *     ORCA property calculations      *
                            ***************************************

                                    ---------------------
                                    Active property flags
                                    ---------------------
   (+) Dipole Moment


------------------------------------------------------------------------------
                       ORCA ELECTRIC PROPERTIES CALCULATION
------------------------------------------------------------------------------

Dipole Moment Calculation                       ... on
Quadrupole Moment Calculation                   ... off
Polarizability Calculation                      ... off
GBWName                                         ... mol.gbw
Electron density file                           ... mol.scfp.tmp
The origin for moment calculation is the CENTER OF MASS  = ( 0.000000,  0.000000  0.000000)

-------------
DIPOLE MOMENT
-------------
                                X             Y             Z
Electronic contribution:     -0.00000      -0.00000       0.00000
Nuclear contribution   :      0.00000       0.00000       0.00000
                        -----------------------------------------
Total Dipole Moment    :     -0.00000      -0.00000       0.00000
                        -----------------------------------------
Magnitude (a.u.)       :      0.00000
Magnitude (Debye)      :      0.00000


                         *** MP2 UNRELAXED DENSITY ***

------------------------------------------------------------------------------
                       ORCA ELECTRIC PROPERTIES CALCULATION
------------------------------------------------------------------------------

Dipole Moment Calculation                       ... on
Quadrupole Moment Calculation                   ... off
Polarizability Calculation                      ... off
GBWName                                         ... mol.gbw
Electron density file                           ... mol.pmp2ur
The origin for moment calculation is the CENTER OF MASS  = ( 0.000000,  0.000000  0.000000)

-------------
DIPOLE MOMENT
-------------
                                X             Y             Z
Electronic contribution:     -0.00000      -0.00000       0.00000
Nuclear contribution   :      0.00000       0.00000       0.00000
                        -----------------------------------------
Total Dipole Moment    :     -0.00000      -0.00000       0.00000
                        -----------------------------------------
Magnitude (a.u.)       :      0.00000
Magnitude (Debye)      :      0.00000


Timings for individual modules:

Sum of individual times         ...        3.930 sec (=   0.065 min)
GTO integral calculation        ...        0.485 sec (=   0.008 min)  12.4 %
SCF iterations                  ...        2.843 sec (=   0.047 min)  72.3 %
MP2 module                      ...        0.602 sec (=   0.010 min)  15.3 %


                 $$$$$$$$$$$$$$$$  JOB NUMBER  2 $$$$$$$$$$$$$$


                       ****************************
                       * Single Point Calculation *
                       ****************************

---------------------------------
CARTESIAN COORDINATES (ANGSTROEM)
---------------------------------
  B      0.000000    0.000000    0.000000

----------------------------
CARTESIAN COORDINATES (A.U.)
----------------------------
  NO LB      ZA    FRAG     MASS         X           Y           Z
   0 B     5.0000    0    10.810    0.000000    0.000000    0.000000

--------------------------------
INTERNAL COORDINATES (ANGSTROEM)
--------------------------------
 B      0   0   0     0.000000000000     0.00000000     0.00000000

---------------------------
INTERNAL COORDINATES (A.U.)
---------------------------
 B      0   0   0     0.000000000000     0.00000000     0.00000000

---------------------
BASIS SET INFORMATION
---------------------
There are 1 groups of distinct atoms

 Group   1 Type B   : 15s8p3d2f1g contracted to 7s4p3d2f1g pattern {8211111/5111/111/11/1}

Atom   0B    basis set group =>   1


           ************************************************************
           *        Program running with 4 parallel MPI-processes     *
           *              working on a common directory               *
           ************************************************************
------------------------------------------------------------------------------
                           ORCA GTO INTEGRAL CALCULATION
------------------------------------------------------------------------------

                         BASIS SET STATISTICS AND STARTUP INFO

 # of primitive gaussian shells          ...   29
 # of primitive gaussian functions       ...   77
 # of contracted shells                  ...   17
 # of contracted basis functions         ...   57
 Highest angular momentum                ...    4
 Maximum contraction depth               ...    8
 Integral package used                   ... LIBINT
 Integral threshhold            Thresh   ...  1.000e-12
 Primitive cut-off              TCut     ...  1.000e-14


------------------------------ INTEGRAL EVALUATION ----------------------------


 * One electron integrals 
 Pre-screening matrix                    ... done
 Shell pair data                         ... done (   0.000 sec)



           ************************************************************
           *        Program running with 4 parallel MPI-processes     *
           *              working on a common directory               *
           ************************************************************
-------------------------------------------------------------------------------
                                 ORCA SCF
-------------------------------------------------------------------------------

------------
SCF SETTINGS
------------
Hamiltonian:
 Ab initio Hamiltonian  Method          .... Hartree-Fock(GTOs)


General Settings:
 Integral files         IntName         .... mol_job2
 Hartree-Fock type      HFTyp           .... CASSCF
 Total Charge           Charge          ....    0
 Multiplicity           Mult            ....    2
 Number of Electrons    NEL             ....    5
 Basis Dimension        Dim             ....   57
 Nuclear Repulsion      ENuc            ....      0.0000000000 Eh


Diagonalization of the overlap matrix:
Smallest eigenvalue                        ... 6.345e-03
Time for diagonalization                   ...    0.006 sec
Threshold for overlap eigenvalues          ... 1.000e-08
Number of eigenvalues below threshold      ... 0
Time for construction of square roots      ...    0.001 sec
Total time needed                          ...    0.007 sec

---------------------
INITIAL GUESS: MOREAD
---------------------
Guess MOs are being read from file: mol.mp2nat
Input Geometry matches current geometry (good)
Input basis set matches current basis set (good)
MOs were renormalized
Gram-Schmidt orthogonalization of all MOs with pivot on actives
                      ------------------
                      INITIAL GUESS DONE (   0.0 sec)
                      ------------------


 ... the calculation is a CASSCF calculation -I'm leaving here GOOD LUCK!!!



           ************************************************************
           *        Program running with 4 parallel MPI-processes     *
           *              working on a common directory               *
           ************************************************************
-------------------------------------------------------------------------------
                              ORCA-CASSCF
-------------------------------------------------------------------------------

Setting up the integral package       ... done
Building the CAS space                ... done (16 configurations for Mult=2)

SYSTEM-SPECIFIC SETTINGS:
Number of active electrons          ...    3
Number of active orbitals           ...    4
Total number of electrons           ...    5
Total number of orbitals            ...   57

Determined orbital ranges:
   Internal       0 -    0 (   1 orbitals)
   Active         1 -    4 (   4 orbitals)
   External       5 -   56 (  52 orbitals)
Number of rotation parameters      ...    264

CI-STEP:
CI strategy                         ... General CI
Number of multiplicity blocks       ...    1
BLOCK  1 WEIGHT=   1.0000
  Multiplicity                      ...    2
  #(Configurations)                 ...   16
  #(CSFs)                           ...   20
  #(Roots)                          ...    1
    ROOT=0 WEIGHT=    1.000000

  PrintLevel                        ...    1
  N(GuessMat)                       ...       512
  MaxDim(CI)                        ...        10
  MaxIter(CI)                       ...        64
  Energy Tolerance CI               ...  1.00e-09
  Residual Tolerance CI             ...  1.00e-09
  Shift(CI)                         ...  1.00e-04

INTEGRAL-TRANSFORMATION-STEP:
  Algorithm                         ... EXACT

ORBITAL-IMPROVEMENT-STEP:
  Algorithm                         ... SuperCI(PT)
  Default Parametrization           ... CAYLEY
  Act-Act rotations                 ... depends on algorithm used

  Note: SuperCI(PT) will ignore level shift, gradscaling, FreezeIE, FreezeAct and FreezeGrad

  MaxRot                            ... 2.00e-01 
  Max. no of vectors (DIIS)         ... 15
  DThresh (cut-off) metric          ... 1.00e-06
  Switch step at gradient           ...  3.00e-02 
  Switch step at iteration          ...        50   
  Switch step to                    ... SuperCI(PT)    

SCF-SETTINGS:
  Incremental                       ... on
  RIJCOSX approximation             ... off
  RI-JK approximation               ... off
  AO integral handling              ... DIRECT
  Integral Neglect Thresh           ...  1.00e-12
  Primitive cutoff TCut             ...  1.00e-14
  Energy convergence tolerance      ...  1.00e-08
  Orbital gradient convergence      ...  1.00e-05
  Max. number of iterations         ...        75  

FINAL ORBITALS:
  Active   Orbitals                 ... natural 
  Internal Orbitals                 ... canonical 
  External Orbitals                 ... canonical 

------------------
CAS-SCF ITERATIONS
------------------


MACRO-ITERATION   1: 
   --- Inactive Energy E0 = -21.98603231 Eh
CI-ITERATION   0: 
   -24.562231089   0.000000000000 (    0.00)
   CI-PROBLEM SOLVED
   DENSITIES MADE

                 <<<<<<<<<<<<<<<<<<INITIAL CI STATE CHECK>>>>>>>>>>>>>>>>>>

BLOCK  1 MULT= 2 NROOTS= 1 
ROOT   0:  E=     -24.5622310890 Eh
      0.94995 [     0]: 2100
      0.02503 [    11]: 0120
      0.02503 [    13]: 0102

                 <<<<<<<<<<<<<<<<<<INITIAL CI STATE CHECK>>>>>>>>>>>>>>>>>>

   E(CAS)=   -24.562231089 Eh DE=     0.000000000
   --- Canonicalize Internal Space
   --- Canonicalize External Space
   --- Energy gap subspaces: Ext-Act = -0.002   Act-Int = 7.217
   N(occ)=  1.89990 1.00000 0.05005 0.05005
   ||g|| =      0.076404130 Max(G)=    -0.050133716 Rot=29,1
   --- Orbital Update [SuperCI(PT)]
   --- SX_PT (Skipped TA=0 IT=0): ||X|| =      0.064656050 Max(X)(30,3) =     -0.038807862 
   --- SFit(Active Orbitals)

MACRO-ITERATION   2: 
   --- Inactive Energy E0 = -21.98483422 Eh
CI-ITERATION   0: 
   -24.563593433   0.000000000000 (    0.00)
   CI-PROBLEM SOLVED
   DENSITIES MADE
   E(CAS)=   -24.563593433 Eh DE=    -0.001362344
   --- Canonicalize Internal Space
   --- Canonicalize External Space
   --- Energy gap subspaces: Ext-Act = 0.010   Act-Int = 7.210
   N(occ)=  1.89158 1.00000 0.05421 0.05421
   ||g|| =      0.021057726 Max(G)=    -0.010856299 Rot=29,1
   --- Orbital Update [SuperCI(PT)]
   --- SX_PT (Skipped TA=0 IT=0): ||X|| =      0.012893671 Max(X)(31,3) =     -0.006109153 
   --- SFit(Active Orbitals)

MACRO-ITERATION   3: 
   --- Inactive Energy E0 = -21.98450770 Eh
CI-ITERATION   0: 
   -24.563709038   0.000000000000 (    0.00)
   CI-PROBLEM SOLVED
   DENSITIES MADE
   E(CAS)=   -24.563709038 Eh DE=    -0.000115605
   --- Canonicalize Internal Space
   --- Canonicalize External Space
   --- Energy gap subspaces: Ext-Act = 0.011   Act-Int = 7.209
   N(occ)=  1.89013 1.00000 0.05494 0.05494
   ||g|| =      0.006331536 Max(G)=    -0.003105029 Rot=16,2
   --- Orbital Update [SuperCI(PT)]
   --- SX_PT (Skipped TA=0 IT=0): ||X|| =      0.004151411 Max(X)(7,2) =     -0.002766883 
   --- SFit(Active Orbitals)

MACRO-ITERATION   4: 
   --- Inactive Energy E0 = -21.98450771 Eh
CI-ITERATION   0: 
   -24.563727210   0.000000000000 (    0.00)
   CI-PROBLEM SOLVED
   DENSITIES MADE
   E(CAS)=   -24.563727210 Eh DE=    -0.000018172
   --- Canonicalize Internal Space
   --- Canonicalize External Space
   --- Energy gap subspaces: Ext-Act = 0.011   Act-Int = 7.209
   N(occ)=  1.88992 1.00000 0.05504 0.05504
   ||g|| =      0.001394376 Max(G)=    -0.000669434 Rot=16,2
   --- Orbital Update [SuperCI(PT)]
   --- SX_PT (Skipped TA=0 IT=0): ||X|| =      0.001056070 Max(X)(7,2) =     -0.000693368 
   --- SFit(Active Orbitals)

MACRO-ITERATION   5: 
   --- Inactive Energy E0 = -21.98448692 Eh
CI-ITERATION   0: 
   -24.563728272   0.000000000000 (    0.00)
   CI-PROBLEM SOLVED
   DENSITIES MADE
   E(CAS)=   -24.563728272 Eh DE=    -0.000001061
   --- Canonicalize Internal Space
   --- Canonicalize External Space
   --- Energy gap subspaces: Ext-Act = 0.011   Act-Int = 7.209
   N(occ)=  1.88990 1.00000 0.05505 0.05505
   ||g|| =      0.000204143 Max(G)=     0.000119028 Rot=13,1
   --- Orbital Update [SuperCI(PT)]
   --- SX_PT (Skipped TA=0 IT=0): ||X|| =      0.000122899 Max(X)(14,4) =     -0.000054433 
   --- SFit(Active Orbitals)

MACRO-ITERATION   6: 
   --- Inactive Energy E0 = -21.98448676 Eh
CI-ITERATION   0: 
   -24.563728281   0.000000000000 (    0.00)
   CI-PROBLEM SOLVED
   DENSITIES MADE
   E(CAS)=   -24.563728281 Eh DE=    -0.000000010
   --- Canonicalize Internal Space
   --- Canonicalize External Space
   --- Energy gap subspaces: Ext-Act = 0.011   Act-Int = 7.209
   N(occ)=  1.88991 1.00000 0.05505 0.05505
   ||g|| =      0.000017855 Max(G)=     0.000009490 Rot=13,1
                     ---- THE CAS-SCF ENERGY   HAS CONVERGED ----
                            --- FINALIZING ORBITALS ---
                    ---- DOING ONE FINAL ITERATION FOR PRINTING ----
   --- Forming Natural Orbitals
   --- Canonicalize Internal Space
   --- Canonicalize External Space

MACRO-ITERATION   7: 
   --- Inactive Energy E0 = -21.98448676 Eh
   --- All densities will be recomputed
CI-ITERATION   0: 
   -24.563728281   0.000000000000 (    0.00)
   CI-PROBLEM SOLVED
   DENSITIES MADE
   E(CAS)=   -24.563728281 Eh DE=    -0.000000000
   --- Energy gap subspaces: Ext-Act = 0.011   Act-Int = 7.209
   N(occ)=  1.88991 1.00000 0.05505 0.05505
   ||g|| =      0.000017855 Max(G)=    -0.000009490 Rot=13,1
--------------
CASSCF RESULTS
--------------

Final CASSCF energy       : -24.563728281 Eh    -668.4130 eV

----------------
ORBITAL ENERGIES
----------------

  NO   OCC          E(Eh)            E(eV) 
   0   2.0000      -7.682703      -209.0570 
   1   1.8899      -0.473405       -12.8820 
   2   1.0000      -0.079955        -2.1757 
   3   0.0550       0.124689         3.3930 
   4   0.0550       0.124689         3.3930 
   5   0.0000       0.135206         3.6791 
   6   0.0000       0.135206         3.6791 
   7   0.0000       0.159646         4.3442 
   8   0.0000       0.210066         5.7162 
   9   0.0000       0.410201        11.1621 
  10   0.0000       0.410201        11.1621 
  11   0.0000       0.415774        11.3138 
  12   0.0000       0.415774        11.3138 
  13   0.0000       0.417639        11.3645 
  14   0.0000       0.623965        16.9790 
  15   0.0000       0.623965        16.9790 
  16   0.0000       0.653636        17.7863 
  17   0.0000       1.156117        31.4595 
  18   0.0000       1.222347        33.2617 
  19   0.0000       1.222347        33.2617 
  20   0.0000       1.235887        33.6302 
  21   0.0000       1.235887        33.6302 
  22   0.0000       1.243942        33.8494 
  23   0.0000       1.243942        33.8494 
  24   0.0000       1.246688        33.9241 
  25   0.0000       1.340772        36.4843 
  26   0.0000       1.340772        36.4843 
  27   0.0000       1.352962        36.8160 
  28   0.0000       1.352962        36.8160 
  29   0.0000       1.356952        36.9246 
  30   0.0000       2.094821        57.0030 
  31   0.0000       2.094821        57.0030 
  32   0.0000       2.106688        57.3259 
  33   0.0000       3.400837        92.5415 
  34   0.0000       3.400837        92.5415 
  35   0.0000       3.418063        93.0102 
  36   0.0000       3.418063        93.0102 
  37   0.0000       3.430470        93.3478 
  38   0.0000       3.430470        93.3478 
  39   0.0000       3.437955        93.5515 
  40   0.0000       3.437955        93.5515 
  41   0.0000       3.440456        93.6196 
  42   0.0000       3.908823       106.3645 
  43   0.0000       3.908823       106.3645 
  44   0.0000       3.928515       106.9003 
  45   0.0000       3.928515       106.9003 
  46   0.0000       3.935156       107.0810 
  47   0.0000       3.951096       107.5148 
  48   0.0000       3.951096       107.5148 
  49   0.0000       3.970975       108.0557 
  50   0.0000       3.970975       108.0557 
  51   0.0000       3.982869       108.3794 
  52   0.0000       3.982869       108.3794 
  53   0.0000       3.986947       108.4903 
  54   0.0000       4.939840       134.4199 
  55   0.0000      19.087210       519.3894 
  56   0.0000     102.979291      2802.2090 


---------------------------------------------
CAS-SCF STATES FOR BLOCK  1 MULT= 2 NROOTS= 1
---------------------------------------------

ROOT   0:  E=     -24.5637282813 Eh
      0.94495 [     0]: 2100
      0.02752 [    13]: 0102
      0.02752 [    11]: 0120

----------------------------------------
  Spin-Determinant CI Printing   
----------------------------------------  
ROOT   0:  E=     -24.5637282813 Eh

CFG[2100]      0.944952909 
------------------------------
   [2u00]      0.972086883
CFG[0120]      0.027523546 
------------------------------
   [0u20]     -0.165902217
CFG[0102]      0.027523546 
------------------------------
   [0u02]     -0.165902217



--------------
DENSITY MATRIX
--------------

                   0          1          2          3    
      0       1.889906   0.000000   0.000000  -0.000000
      1       0.000000   1.000000   0.000000  -0.000000
      2       0.000000   0.000000   0.055047  -0.000000
      3      -0.000000  -0.000000  -0.000000   0.055047
Trace of the electron density:  3.000000

-------------------
SPIN-DENSITY MATRIX
-------------------

                   0          1          2          3    
      0       0.000000  -0.000000  -0.000000   0.000000
      1      -0.000000   1.000000   0.000000  -0.000000
      2      -0.000000   0.000000   0.000000  -0.000000
      3       0.000000  -0.000000  -0.000000   0.000000
Trace of the spin density:  1.000000

-----------------
ENERGY COMPONENTS
-----------------

One electron energy          :    -32.373911650 Eh        -880.9389 eV
Two electron energy          :      7.810183368 Eh         212.5259 eV
Nuclear repuslion energy     :      0.000000000 Eh           0.0000 eV
                               ----------------
                                  -24.563728281

Kinetic energy               :     24.563258891 Eh         668.4003 eV
Potential energy             :    -49.126987172 Eh       -1336.8133 eV
Virial ratio                 :     -2.000019109 
                               ----------------
                                  -24.563728281

Core energy                  :    -21.984486762 Eh     -598.2283 eV


----------------------------
LOEWDIN ORBITAL-COMPOSITIONS
----------------------------

                      0         1         2         3         4         5   
                  -7.68270  -0.47340  -0.07996   0.12469   0.12469   0.13521
                   2.00000   1.88991   1.00000   0.05505   0.05505   0.00000
                  --------  --------  --------  --------  --------  --------
 0 B  s             100.0     100.0       0.0       0.0       0.0       0.0
 0 B  pz              0.0       0.0       7.6       3.9      88.4      92.4
 0 B  px              0.0       0.0       1.5      95.6       2.9       0.2
 0 B  py              0.0       0.0      90.9       0.5       8.7       7.5

                      6         7         8         9        10        11   
                   0.13521   0.15965   0.21007   0.41020   0.41020   0.41577
                   0.00000   0.00000   0.00000   0.00000   0.00000   0.00000
                  --------  --------  --------  --------  --------  --------
 0 B  s               0.0       0.0      99.9       0.0       0.0       0.0
 0 B  pz              0.0       7.6       0.0       0.0       0.0       0.0
 0 B  px             98.3       1.5       0.0       0.0       0.0       0.0
 0 B  py              1.7      90.9       0.0       0.0       0.0       0.0
 0 B  dz2             0.0       0.0       0.0      61.1       2.9      20.7
 0 B  dxz             0.0       0.0       0.0       5.6      85.4       0.4
 0 B  dyz             0.0       0.0       0.0       5.4       3.1      69.9
 0 B  dx2y2           0.0       0.0       0.0      24.4       3.2       4.7
 0 B  dxy             0.0       0.0       0.0       3.6       5.4       4.3

                     12        13        14        15        16        17   
                   0.41577   0.41764   0.62397   0.62397   0.65364   1.15612
                   0.00000   0.00000   0.00000   0.00000   0.00000   0.00000
                  --------  --------  --------  --------  --------  --------
 0 B  s               0.0       0.1       0.0       0.0       0.0     100.0
 0 B  pz              0.0       0.0       0.1      92.2       7.6       0.0
 0 B  px              0.0       0.0      98.5       0.0       1.5       0.0
 0 B  py              0.0       0.0       1.3       7.8      90.9       0.0
 0 B  dz2             0.5      14.8       0.0       0.0       0.0       0.0
 0 B  dxz             8.3       0.3       0.0       0.0       0.0       0.0
 0 B  dyz             0.9      20.8       0.0       0.0       0.0       0.0
 0 B  dx2y2           7.7      59.9       0.0       0.0       0.0       0.0
 0 B  dxy            82.6       4.0       0.0       0.0       0.0       0.0

                     18        19        20        21        22        23   
                   1.22235   1.22235   1.23589   1.23589   1.24394   1.24394
                   0.00000   0.00000   0.00000   0.00000   0.00000   0.00000
                  --------  --------  --------  --------  --------  --------
 0 B  f0             29.2      20.0       1.6      22.9      13.0       0.2
 0 B  f+1            29.3      49.5      17.8       0.1       0.4       2.7
 0 B  f-1             6.8       0.5       0.9      33.1      45.2       0.4
 0 B  f+2            27.5      10.7       5.4       0.2      30.1       3.1
 0 B  f-2             0.6      11.8      61.8       5.5       3.9      14.8
 0 B  f+3             1.5       7.3       5.4       9.3       0.0      69.7
 0 B  f-3             5.1       0.1       7.1      28.9       7.3       9.1

                     24        25        26        27        28        29   
                   1.24669   1.34077   1.34077   1.35296   1.35296   1.35695
                   0.00000   0.00000   0.00000   0.00000   0.00000   0.00000
                  --------  --------  --------  --------  --------  --------
 0 B  dz2             0.0      63.6       0.4      15.1       6.0      14.9
 0 B  dxz             0.0       1.1      89.9       0.3       8.4       0.3
 0 B  dyz             0.0       6.4       2.0      53.2      17.5      20.8
 0 B  dx2y2           0.0      26.4       1.2       0.8      11.7      59.9
 0 B  dxy             0.0       2.4       6.6      30.5      56.4       4.0
 0 B  f0             13.1       0.0       0.0       0.0       0.0       0.0
 0 B  f+1             0.2       0.0       0.0       0.0       0.0       0.0
 0 B  f-1            13.0       0.0       0.0       0.0       0.0       0.0
 0 B  f+2            22.9       0.0       0.0       0.0       0.0       0.0
 0 B  f-2             1.5       0.0       0.0       0.0       0.0       0.0
 0 B  f+3             6.8       0.0       0.0       0.0       0.0       0.0
 0 B  f-3            42.4       0.0       0.0       0.0       0.0       0.0

                     30        31        32        33        34        35   
                   2.09482   2.09482   2.10669   3.40084   3.40084   3.41806
                   0.00000   0.00000   0.00000   0.00000   0.00000   0.00000
                  --------  --------  --------  --------  --------  --------
 0 B  pz              1.0      91.3       7.6       0.0       0.0       0.0
 0 B  px             98.0       0.5       1.5       0.0       0.0       0.0
 0 B  py              0.9       8.2      90.9       0.0       0.0       0.0
 0 B  g0              0.0       0.0       0.0       4.0      35.8      22.4
 0 B  g+1             0.0       0.0       0.0      59.6       8.3       2.1
 0 B  g-1             0.0       0.0       0.0       3.0       3.3      17.0
 0 B  g+2             0.0       0.0       0.0       7.9      33.3       1.0
 0 B  g-2             0.0       0.0       0.0       6.6       6.8       6.3
 0 B  g+3             0.0       0.0       0.0      11.1       5.0      11.8
 0 B  g-3             0.0       0.0       0.0       5.4       4.2      29.7
 0 B  g+4             0.0       0.0       0.0       1.4       1.7       2.4
 0 B  g-4             0.0       0.0       0.0       0.9       1.6       7.4

                     36        37        38        39        40        41   
                   3.41806   3.43047   3.43047   3.43795   3.43795   3.44046
                   0.00000   0.00000   0.00000   0.00000   0.00000   0.00000
                  --------  --------  --------  --------  --------  --------
 0 B  g0              4.0       0.0       5.8      23.0       3.8       1.3
 0 B  g+1            23.4       2.6       0.6       0.9       2.1       0.4
 0 B  g-1             1.1       0.0      41.7       6.0       1.5      26.4
 0 B  g+2             2.1       2.8       7.6      35.8       4.0       5.4
 0 B  g-2            38.7      35.2       1.0       0.9       4.1       0.4
 0 B  g+3             2.4      41.2       0.2      10.5      14.1       3.6
 0 B  g-3            12.2       6.7       0.1       8.6      10.4      22.7
 0 B  g+4             8.1       2.0      33.7      11.4       8.9      30.4
 0 B  g-4             7.9       9.5       9.5       2.9      51.0       9.4

                     42        43        44        45        46        47   
                   3.90882   3.90882   3.92851   3.92851   3.93516   3.95110
                   0.00000   0.00000   0.00000   0.00000   0.00000   0.00000
                  --------  --------  --------  --------  --------  --------
 0 B  dz2             8.9      55.1      16.3       4.8      14.9       0.0
 0 B  dxz            80.4      10.5       5.1       3.6       0.3       0.0
 0 B  dyz             0.0       8.4      52.1      18.6      20.8       0.0
 0 B  dx2y2           1.7      25.9      11.6       0.8      59.9       0.0
 0 B  dxy             8.9       0.1      14.8      72.1       4.0       0.0
 0 B  f0              0.0       0.0       0.0       0.0       0.0       5.2
 0 B  f+1             0.0       0.0       0.0       0.0       0.0      68.8
 0 B  f-1             0.0       0.0       0.0       0.0       0.0       3.5
 0 B  f+2             0.0       0.0       0.0       0.0       0.0       7.6
 0 B  f-2             0.0       0.0       0.0       0.0       0.0       6.1
 0 B  f+3             0.0       0.0       0.0       0.0       0.0       6.0
 0 B  f-3             0.0       0.0       0.0       0.0       0.0       3.0

                     48        49        50        51        52        53   
                   3.95110   3.97098   3.97098   3.98287   3.98287   3.98695
                   0.00000   0.00000   0.00000   0.00000   0.00000   0.00000
                  --------  --------  --------  --------  --------  --------
 0 B  f0             44.1      12.5      11.9       0.3      12.9      13.1
 0 B  f+1            10.0       5.7      12.2       1.9       1.2       0.2
 0 B  f-1             3.8      20.5      13.5       1.7      44.0      13.0
 0 B  f+2            30.7       0.6       5.0       0.0      33.2      22.9
 0 B  f-2             6.4      35.1      32.3      18.1       0.6       1.5
 0 B  f+3             2.8      14.4       0.3      64.6       5.1       6.8
 0 B  f-3             2.2      11.3      24.7      13.4       3.0      42.4

                     54        55        56   
                   4.93984  19.08721 102.97929
                   0.00000   0.00000   0.00000
                  --------  --------  --------
 0 B  s             100.0     100.0     100.0

----------------------------
LOEWDIN REDUCED ACTIVE MOs  
----------------------------

                      0         1         2         3         4         5   
                  -7.68270  -0.47340  -0.07996   0.12469   0.12469   0.13521
                   2.00000   1.88991   1.00000   0.05505   0.05505   0.00000
                  --------  --------  --------  --------  --------  --------
 0 B  s             100.0     100.0       0.0       0.0       0.0       0.0
 0 B  pz              0.0       0.0       7.6       3.9      88.4      92.4
 0 B  px              0.0       0.0       1.5      95.6       2.9       0.2
 0 B  py              0.0       0.0      90.9       0.5       8.7       7.5

------------------------------------------------------------------------------
                           ORCA POPULATION ANALYSIS
------------------------------------------------------------------------------
Input electron density              ... mol_job2.scfp.tmp
Input spin density                  ... mol_job2.scfr.tmp
BaseName (.gbw .S,...)              ... mol_job2

                    ********************************
                    * MULLIKEN POPULATION ANALYSIS *
                    ********************************

------------------------------------------
MULLIKEN ATOMIC CHARGES AND SPIN DENSITIES
------------------------------------------
   0 B :   -0.000000    1.000000
Sum of atomic charges       :   -0.0000000
Sum of atomic spin densities:    1.0000000

---------------------------------------------------
MULLIKEN REDUCED ORBITAL CHARGES AND SPIN DENSITIES
---------------------------------------------------
CHARGE
  0 B s       :     3.889747  s :     3.889747
      pz      :     0.127228  p :     1.110091
      px      :     0.069082
      py      :     0.913782
      dz2     :     0.000024  d :     0.000159
      dxz     :     0.000001
      dyz     :     0.000033
      dx2y2   :     0.000095
      dxy     :     0.000006
      f0      :     0.000000  f :     0.000003
      f+1     :     0.000000
      f-1     :     0.000001
      f+2     :     0.000001
      f-2     :     0.000000
      f+3     :     0.000001
      f-3     :     0.000000
      g0      :     0.000000  g :     0.000000
      g+1     :     0.000000
      g-1     :     0.000000
      g+2     :     0.000000
      g-2     :     0.000000
      g+3     :     0.000000
      g-3     :     0.000000
      g+4     :     0.000000
      g-4     :     0.000000

SPIN
  0 B s       :     0.000000  s :     0.000000
      pz      :     0.076387  p :     0.999999
      px      :     0.014853
      py      :     0.908759
      dz2     :     0.000000  d :     0.000000
      dxz     :     0.000000
      dyz     :     0.000000
      dx2y2   :     0.000000
      dxy     :     0.000000
      f0      :     0.000000  f :     0.000001
      f+1     :     0.000000
      f-1     :     0.000000
      f+2     :     0.000000
      f-2     :     0.000000
      f+3     :     0.000000
      f-3     :     0.000000
      g0      :     0.000000  g :    -0.000000
      g+1     :     0.000000
      g-1     :    -0.000000
      g+2     :     0.000000
      g-2     :    -0.000000
      g+3     :     0.000000
      g-3     :    -0.000000
      g+4     :     0.000000
      g-4     :    -0.000000


                     *******************************
                     * LOEWDIN POPULATION ANALYSIS *
                     *******************************

-----------------------------------------
LOEWDIN ATOMIC CHARGES AND SPIN DENSITIES
-----------------------------------------
   0 B :   -0.000000    1.000000

--------------------------------------------------
LOEWDIN REDUCED ORBITAL CHARGES AND SPIN DENSITIES
--------------------------------------------------
CHARGE
  0 B s       :     3.889747  s :     3.889747
      pz      :     0.127228  p :     1.110091
      px      :     0.069082
      py      :     0.913782
      dz2     :     0.000024  d :     0.000159
      dxz     :     0.000001
      dyz     :     0.000033
      dx2y2   :     0.000095
      dxy     :     0.000006
      f0      :     0.000000  f :     0.000003
      f+1     :     0.000000
      f-1     :     0.000001
      f+2     :     0.000001
      f-2     :     0.000000
      f+3     :     0.000001
      f-3     :     0.000000
      g0      :     0.000000  g :     0.000000
      g+1     :     0.000000
      g-1     :     0.000000
      g+2     :     0.000000
      g-2     :     0.000000
      g+3     :     0.000000
      g-3     :     0.000000
      g+4     :     0.000000
      g-4     :     0.000000

SPIN
  0 B s       :     0.000000  s :     0.000000
      pz      :     0.076387  p :     0.999999
      px      :     0.014853
      py      :     0.908759
      dz2     :     0.000000  d :     0.000000
      dxz     :     0.000000
      dyz     :     0.000000
      dx2y2   :     0.000000
      dxy     :     0.000000
      f0      :     0.000000  f :     0.000001
      f+1     :     0.000000
      f-1     :     0.000000
      f+2     :     0.000000
      f-2     :     0.000000
      f+3     :     0.000000
      f-3     :     0.000000
      g0      :     0.000000  g :     0.000000
      g+1     :     0.000000
      g-1     :     0.000000
      g+2     :     0.000000
      g-2     :     0.000000
      g+3     :     0.000000
      g-3     :     0.000000
      g+4     :     0.000000
      g-4     :    -0.000000


                      *****************************
                      * MAYER POPULATION ANALYSIS *
                      *****************************

  NA   - Mulliken gross atomic population
  ZA   - Total nuclear charge
  QA   - Mulliken gross atomic charge
  VA   - Mayer's total valence
  BVA  - Mayer's bonded valence
  FA   - Mayer's free valence

  ATOM       NA         ZA         QA         VA         BVA        FA
  0 B      5.0000     5.0000    -0.0000     1.4222     0.0000     1.4222



Transition Dipole Moments (a.u.) with input orbitals:
MO   0:
 MO   2:      0.071079485 (     0.008662771,     -0.067759287,      0.019645064)
 MO   3:      0.081245818 (     0.079447578,      0.005493062,     -0.016087002)
 MO   4:      0.081245818 (    -0.013817380,     -0.023918445,     -0.076405962)
MO   1:
 MO   2:      1.161111284 (    -0.141509765,      1.106874557,     -0.320909826)
 MO   3:      1.091775807 (    -1.067611173,     -0.073815402,      0.216176042)
 MO   4:      1.091775807 (     0.185677012,      0.321414444,      1.026738143)
MO   2:
MO   3:
MO   4:
CleanUpVectors: The p-vectors have cracked symmetry

[...]
 0 B  f-1             7.2       0.1      27.9       6.2      30.9      14.8
 0 B  f+2            31.4       6.8       2.9       2.7      28.4       4.8
 0 B  f-2             0.1      12.3       6.5      60.8       1.0      17.7
 0 B  f+3             0.8       8.0       1.4      13.3      28.0      41.7
 0 B  f-3             5.2       0.0      35.3       0.8       0.0      16.3

                     24        25        26        27        28        29   
                   1.24669   1.34077   1.34077   1.35296   1.35296   1.35695
                   0.00000   0.00000   0.00000   0.00000   0.00000   0.00000
                  --------  --------  --------  --------  --------  --------
 0 B  dz2             0.0      63.9       0.0      20.9       0.2      14.9
 0 B  dxz             0.0       0.3      90.6       0.6       8.1       0.3
 0 B  dyz             0.0       6.8       1.7      70.4       0.3      20.8
 0 B  dx2y2           0.0      26.9       0.7       5.3       7.2      59.9
 0 B  dxy             0.0       2.0       7.0       2.8      84.2       4.0
 0 B  f0             13.1       0.0       0.0       0.0       0.0       0.0
 0 B  f+1             0.2       0.0       0.0       0.0       0.0       0.0
 0 B  f-1            13.0       0.0       0.0       0.0       0.0       0.0
 0 B  f+2            22.9       0.0       0.0       0.0       0.0       0.0
 0 B  f-2             1.5       0.0       0.0       0.0       0.0       0.0
 0 B  f+3             6.8       0.0       0.0       0.0       0.0       0.0
 0 B  f-3            42.4       0.0       0.0       0.0       0.0       0.0

                     30        31        32        33        34        35   
                   2.09482   2.09482   2.10669   3.40084   3.40084   3.41806
                   0.00000   0.00000   0.00000   0.00000   0.00000   0.00000
                  --------  --------  --------  --------  --------  --------
 0 B  pz             92.4       0.0       7.6       0.0       0.0       0.0
 0 B  px              0.1      98.4       1.5       0.0       0.0       0.0
 0 B  py              7.5       1.6      90.9       0.0       0.0       0.0
 0 B  g0              0.0       0.0       0.0       0.5      39.3      26.2
 0 B  g+1             0.0       0.0       0.0      67.6       0.4       0.9
 0 B  g-1             0.0       0.0       0.0       0.6       5.6      17.2
 0 B  g+2             0.0       0.0       0.0       0.0      41.2       0.1
 0 B  g-2             0.0       0.0       0.0      11.7       1.7       0.4
 0 B  g+3             0.0       0.0       0.0      15.8       0.4       5.4
 0 B  g-3             0.0       0.0       0.0       1.6       8.0      41.5
 0 B  g+4             0.0       0.0       0.0       0.3       2.8       7.2
 0 B  g-4             0.0       0.0       0.0       1.9       0.6       1.2

                     36        37        38        39        40        41   
                   3.41806   3.43047   3.43047   3.43796   3.43796   3.44046
                   0.00000   0.00000   0.00000   0.00000   0.00000   0.00000
                  --------  --------  --------  --------  --------  --------
 0 B  g0              0.2       3.9       1.9       2.5      24.3       1.3
 0 B  g+1            24.6       0.0       3.1       2.9       0.0       0.4
 0 B  g-1             1.0      29.5      12.2       0.4       7.1      26.4
 0 B  g+2             3.1       2.1       8.3       5.3      34.5       5.4
 0 B  g-2            44.6      15.9      20.3       0.9       4.1       0.4
 0 B  g+3             8.8      14.2      27.2      24.6       0.0       3.6
 0 B  g-3             0.3       1.4       5.4       0.3      18.7      22.7
 0 B  g+4             3.3      32.1       3.6      19.9       0.5      30.4
 0 B  g-4            14.1       0.9      18.0      43.1      10.8       9.4

                     42        43        44        45        46        47   
                   3.90882   3.90882   3.92852   3.92852   3.93516   3.95110
                   0.00000   0.00000   0.00000   0.00000   0.00000   0.00000
                  --------  --------  --------  --------  --------  --------
 0 B  dz2            16.3      47.7      13.3       7.9      14.9       0.0
 0 B  dxz            70.6      20.4       0.7       8.0       0.3       0.0
 0 B  dyz             0.1       8.4      47.1      23.6      20.8       0.0
 0 B  dx2y2           4.1      23.5       0.3      12.1      59.9       0.0
 0 B  dxy             9.0       0.0      38.6      48.3       4.0       0.0
 0 B  f0              0.0       0.0       0.0       0.0       0.0       1.1
 0 B  f+1             0.0       0.0       0.0       0.0       0.0      76.2
 0 B  f-1             0.0       0.0       0.0       0.0       0.0       2.2
 0 B  f+2             0.0       0.0       0.0       0.0       0.0       2.9
 0 B  f-2             0.0       0.0       0.0       0.0       0.0       8.3
 0 B  f+3             0.0       0.0       0.0       0.0       0.0       7.3
 0 B  f-3             0.0       0.0       0.0       0.0       0.0       2.0

                     48        49        50        51        52        53   
                   3.95110   3.97098   3.97098   3.98287   3.98287   3.98695
                   0.00000   0.00000   0.00000   0.00000   0.00000   0.00000
                  --------  --------  --------  --------  --------  --------
 0 B  f0             48.2      17.1       7.4      13.2       0.0      13.1
 0 B  f+1             2.6       8.5       9.5       0.6       2.5       0.2
 0 B  f-1             5.1      20.8      13.2      45.6       0.0      13.0
 0 B  f+2            35.3       4.1       1.5      31.4       1.9      22.9
 0 B  f-2             4.2      18.3      49.0       2.9      15.8       1.5
 0 B  f+3             1.5       0.1      14.6       0.2      69.5       6.8
 0 B  f-3             3.2      31.1       4.9       6.1      10.2      42.4

                     54        55        56   
                   4.93984  19.08721 102.97929
                   0.00000   0.00000   0.00000
                  --------  --------  --------
 0 B  s             100.0     100.0     100.0

----------------------------
LOEWDIN REDUCED ACTIVE MOs  
----------------------------

                      0         1         2         3         4         5   
                  -7.68270  -0.47340  -0.07995   0.12469   0.12469   0.13521
                   2.00000   1.88991   1.00000   0.05505   0.05505   0.00000
                  --------  --------  --------  --------  --------  --------
 0 B  s             100.0     100.0       0.0       0.0       0.0       0.0
 0 B  pz              0.0       0.0       7.6      32.2      60.1       9.3
 0 B  px              0.0       0.0       1.5      67.4      31.1      90.6
 0 B  py              0.0       0.0      90.9       0.4       8.8       0.1

------------------------------------------------------------------------------
                           ORCA POPULATION ANALYSIS
------------------------------------------------------------------------------
Input electron density              ... mol_job3.scfp.tmp
Input spin density                  ... mol_job3.scfr.tmp
BaseName (.gbw .S,...)              ... mol_job3

                    ********************************
                    * MULLIKEN POPULATION ANALYSIS *
                    ********************************

------------------------------------------
MULLIKEN ATOMIC CHARGES AND SPIN DENSITIES
------------------------------------------
   0 B :    0.000000    1.000000
Sum of atomic charges       :    0.0000000
Sum of atomic spin densities:    1.0000000

---------------------------------------------------
MULLIKEN REDUCED ORBITAL CHARGES AND SPIN DENSITIES
---------------------------------------------------
CHARGE
  0 B s       :     3.889747  s :     3.889747
      pz      :     0.127228  p :     1.110091
      px      :     0.069082
      py      :     0.913782
      dz2     :     0.000024  d :     0.000159
      dxz     :     0.000001
      dyz     :     0.000033
      dx2y2   :     0.000095
      dxy     :     0.000006
      f0      :     0.000000  f :     0.000003
      f+1     :     0.000000
      f-1     :     0.000001
      f+2     :     0.000001
      f-2     :     0.000000
      f+3     :     0.000001
      f-3     :     0.000000
      g0      :     0.000000  g :     0.000000
      g+1     :     0.000000
      g-1     :     0.000000
      g+2     :     0.000000
      g-2     :     0.000000
      g+3     :     0.000000
      g-3     :     0.000000
      g+4     :     0.000000
      g-4     :     0.000000

SPIN
  0 B s       :     0.000000  s :     0.000000
      pz      :     0.076387  p :     0.999999
      px      :     0.014853
      py      :     0.908759
      dz2     :     0.000000  d :     0.000000
      dxz     :     0.000000
      dyz     :     0.000000
      dx2y2   :    -0.000000
      dxy     :     0.000000
      f0      :     0.000000  f :     0.000001
      f+1     :     0.000000
      f-1     :     0.000000
      f+2     :     0.000000
      f-2     :     0.000000
      f+3     :     0.000000
      f-3     :     0.000000
      g0      :    -0.000000  g :     0.000000
      g+1     :     0.000000
      g-1     :     0.000000
      g+2     :    -0.000000
      g-2     :     0.000000
      g+3     :     0.000000
      g-3     :     0.000000
      g+4     :    -0.000000
      g-4     :     0.000000


                     *******************************
                     * LOEWDIN POPULATION ANALYSIS *
                     *******************************

-----------------------------------------
LOEWDIN ATOMIC CHARGES AND SPIN DENSITIES
-----------------------------------------
   0 B :   -0.000000    1.000000

--------------------------------------------------
LOEWDIN REDUCED ORBITAL CHARGES AND SPIN DENSITIES
--------------------------------------------------
CHARGE
  0 B s       :     3.889747  s :     3.889747
      pz      :     0.127228  p :     1.110091
      px      :     0.069082
      py      :     0.913782
      dz2     :     0.000024  d :     0.000159
      dxz     :     0.000001
      dyz     :     0.000033
      dx2y2   :     0.000095
      dxy     :     0.000006
      f0      :     0.000000  f :     0.000003
      f+1     :     0.000000
      f-1     :     0.000001
      f+2     :     0.000001
      f-2     :     0.000000
      f+3     :     0.000001
      f-3     :     0.000000
      g0      :     0.000000  g :     0.000000
      g+1     :     0.000000
      g-1     :     0.000000
      g+2     :     0.000000
      g-2     :     0.000000
      g+3     :     0.000000
      g-3     :     0.000000
      g+4     :     0.000000
      g-4     :     0.000000

SPIN
  0 B s       :     0.000000  s :     0.000000
      pz      :     0.076387  p :     0.999999
      px      :     0.014853
      py      :     0.908759
      dz2     :     0.000000  d :     0.000000
      dxz     :     0.000000
      dyz     :     0.000000
      dx2y2   :    -0.000000
      dxy     :     0.000000
      f0      :     0.000000  f :     0.000001
      f+1     :     0.000000
      f-1     :     0.000000
      f+2     :     0.000000
      f-2     :     0.000000
      f+3     :     0.000000
      f-3     :     0.000000
      g0      :     0.000000  g :     0.000000
      g+1     :     0.000000
      g-1     :     0.000000
      g+2     :     0.000000
      g-2     :     0.000000
      g+3     :     0.000000
      g-3     :     0.000000
      g+4     :     0.000000
      g-4     :     0.000000


                      *****************************
                      * MAYER POPULATION ANALYSIS *
                      *****************************

  NA   - Mulliken gross atomic population
  ZA   - Total nuclear charge
  QA   - Mulliken gross atomic charge
  VA   - Mayer's total valence
  BVA  - Mayer's bonded valence
  FA   - Mayer's free valence

  ATOM       NA         ZA         QA         VA         BVA        FA
  0 B      5.0000     5.0000     0.0000     1.4222     0.0000     1.4222




------------------------------------------
 Active MOs in an orthogonalized AO basis 
------------------------------------------

 Active MO  1   
 Energy     -0.47340379 
 Occupation 1.889906 
-----------------------------
  0 B  s        0.66196676
  0 B  s        0.53872297
  0 B  s        0.48613930
  0 B  s        -0.11060312
  0 B  s        -0.10684364
  0 B  s        -0.08424729
  0 B  s        0.06645398
  0 B  dx2y2    0.00612915
  0 B  dyz      0.00361303
  0 B  dx2y2    0.00309486
  0 B  dz2      0.00305149
  0 B  dyz      0.00182437
  0 B  dx2y2    0.00175313
  0 B  dxy      0.00159322
  0 B  dz2      0.00154082
  0 B  dyz      0.00103344
  0 B  dz2      0.00087282
  0 B  dxy      0.00080448
  0 B  dxz      -0.00046191
  0 B  dxy      0.00045571
  0 B  dxz      -0.00023324
  0 B  dxz      -0.00013212

 Active MO  2   
 Energy     -0.07995421 
 Occupation 1.000000 
-----------------------------
  0 B  py       -0.56849257
  0 B  py       -0.52854698
  0 B  py       -0.43922737
  0 B  py       -0.33658995
  0 B  pz       0.16481981
  0 B  pz       0.15323861
  0 B  pz       0.12734269
  0 B  pz       0.09758560
  0 B  px       0.07267964
  0 B  px       0.06757275
  0 B  px       0.05615357
  0 B  px       0.04303176
  0 B  f-3      -0.00047966
  0 B  f+2      -0.00035235
  0 B  f0       -0.00026645
  0 B  f-1      0.00026573
  0 B  f-3      -0.00025804
  0 B  f+3      0.00019240
  0 B  f+2      -0.00018955
  0 B  f0       -0.00014334
  0 B  f-1      0.00014295
  0 B  f+3      0.00010350

 Active MO  3   
 Energy     0.12469000 
 Occupation 0.055047 
-----------------------------
  0 B  px       -0.56206239
  0 B  px       -0.43500125
  0 B  pz       0.38864284
  0 B  px       -0.37916736
  0 B  pz       0.30078533
  0 B  pz       0.26217851
  0 B  px       -0.15877235
  0 B  pz       0.10978449
  0 B  py       0.04081943
  0 B  py       0.03159169
  0 B  py       0.02753679
  0 B  py       0.01153074
  0 B  f+3      -0.00256736
  0 B  f+3      -0.00227830
  0 B  f+2      -0.00148958
  0 B  f-1      -0.00135862
  0 B  f+2      -0.00132187
  0 B  f-1      -0.00120565
  0 B  f-2      0.00085427
  0 B  f0       -0.00076191
  0 B  f-2      0.00075809
  0 B  f0       -0.00067613
  0 B  f+1      0.00061936
  0 B  f+1      0.00054963
  0 B  f-3      -0.00047200
  0 B  f-3      -0.00041886

 Active MO  4   
 Energy     0.12469000 
 Occupation 0.055047 
-----------------------------
  0 B  pz       0.53083302
  0 B  pz       0.41083166
  0 B  px       0.38177066
  0 B  pz       0.35810002
  0 B  px       0.29546669
  0 B  px       0.25754254
  0 B  py       0.20270934
  0 B  py       0.15688439
  0 B  pz       0.14995062
  0 B  py       0.13674774
  0 B  px       0.10784323
  0 B  py       0.05726168
  0 B  f-1      -0.00197330
  0 B  f-1      -0.00175113
  0 B  f+3      0.00147529
  0 B  f+2      -0.00140037
  0 B  f-3      0.00135366
  0 B  f+3      0.00130919
  0 B  f-2      -0.00127294
  0 B  f+2      -0.00124270
  0 B  f-3      0.00120126
  0 B  f-2      -0.00112962
  0 B  f0       -0.00104066
  0 B  f0       -0.00092350

Transition Dipole Moments (a.u.) with input orbitals:
MO   0:
 MO   2:      0.071079084 (    -0.008662722,      0.067758906,     -0.019644953)
 MO   3:      0.081245709 (     0.066707225,     -0.004844571,     -0.046125280)
 MO   4:      0.081245709 (    -0.045309670,     -0.024058143,     -0.063000831)
MO   1:
 MO   2:      1.161113109 (     0.141509988,     -1.106876296,      0.320910331)
 MO   3:      1.091775392 (    -0.896408041,      0.065101075,      0.619828993)
 MO   4:      1.091775392 (     0.608868870,      0.323292013,      0.846601724)
MO   2:
MO   3:
MO   4:
CleanUpVectors: The p-vectors have cracked symmetry

-------------------------------------------------------------
 Forming the transition density       ... done in 0.000091 sec
-------------------------------------------------------------



==========================================
CASSCF UV, CD spectra and dipole moments
==========================================
-------------------
ABSORPTION SPECTRUM
-------------------

Center of mass           = (  0.0000,  0.0000,  0.0000)
Nuclear contribution to the dipole moment =     0.000000,    0.000000,    0.000000 au

Calculating the dipole integrals          ... done

Ground state mult:    2
Ground state block:   0
Ground state root:    0


------------------------------------------------------------------------------
                                 DIPOLE MOMENTS
------------------------------------------------------------------------------
  Root  Block           TX        TY        TZ           |T|
                      (Debye)   (Debye)   (Debye)      (Debye)
------------------------------------------------------------------------------
    0    0            0.00000   0.00000   0.00000      0.00000

-------
TIMINGS
-------

Total time                       ...        0.5 sec
Sum of individual times          ...        0.3 sec ( 66.3%)

Calculation of AO operators
   F(Core) operator              ...        0.1 sec ( 13.0%)
   G(Act) operator               ...        0.1 sec ( 19.5%)
   J(AO) operators               ...        0.1 sec ( 31.8%)
Calculation of MO transformed quantities
   J(MO) operators               ...        0.0 sec (  0.0%)
   (pq|rs) integrals             ...        0.0 sec (  0.1%)
   AO->MO one electron integrals ...        0.0 sec (  0.7%)
Configuration interaction steps
   CI-setup phase                ...        0.0 sec (  0.1%)
   CI-solution phase             ...        0.0 sec (  0.7%)
   Generation of densities       ...        0.0 sec (  0.0%)
Orbital improvement steps
   Orbital gradient              ...        0.0 sec (  0.1%)
   O(1) converger                ...        0.0 sec (  0.0%)
Properties                       ...        0.0 sec (  0.3%)

-------------------------   --------------------
FINAL SINGLE POINT ENERGY       -24.563728281388
-------------------------   --------------------


                            ***************************************
                            *     ORCA property calculations      *
                            ***************************************

                                    ---------------------
                                    Active property flags
                                    ---------------------
   (+) Dipole Moment


------------------------------------------------------------------------------
                       ORCA ELECTRIC PROPERTIES CALCULATION
------------------------------------------------------------------------------

Dipole Moment Calculation                       ... on
Quadrupole Moment Calculation                   ... off
Polarizability Calculation                      ... off
GBWName                                         ... mol_job3.gbw
Electron density file                           ... mol_job3.scfp.tmp
The origin for moment calculation is the CENTER OF MASS  = ( 0.000000,  0.000000  0.000000)

-------------
DIPOLE MOMENT
-------------
                                X             Y             Z
Electronic contribution:      0.00000       0.00000       0.00000
Nuclear contribution   :      0.00000       0.00000       0.00000
                        -----------------------------------------
Total Dipole Moment    :      0.00000       0.00000       0.00000
                        -----------------------------------------
Magnitude (a.u.)       :      0.00000
Magnitude (Debye)      :      0.00000


Timings for individual modules:

Sum of individual times         ...        1.592 sec (=   0.027 min)
GTO integral calculation        ...        0.497 sec (=   0.008 min)  31.2 %
SCF iterations                  ...        0.257 sec (=   0.004 min)  16.1 %
CASSCF iterations               ...        0.838 sec (=   0.014 min)  52.7 %



                             ****ORCA TERMINATED NORMALLY****
TOTAL RUN TIME: 0 days 0 hours 0 minutes 8 seconds 525 msec
