[Molden Format]
[Title]
 Molden file created by orca_2mkl for BaseName=mol_job2

[Atoms] AU
B    1   5          0.0000000000         0.0000000000         0.0000000000 
[GTO]
  1 0
s   8 1.0 
    46447.6670560000         0.1606515815
     6957.6889042000         0.3006486321
     1583.4428403000         0.5194566708
      448.4660100900         0.8440012200
      146.2863926200         1.2873788277
       52.7843860840         1.8032070283
       20.5193961700         2.1831151925
        8.4185659258         2.0862074964
s   2 1.0 
       36.5100183120         0.9826224617
       10.5418540050         3.8673377084
s   1 1.0 
        3.6004091387         1.8628332613
s   1 1.0 
        1.5617023749         0.9956548080
s   1 1.0 
        0.4499737078         0.3915619170
s   1 1.0 
        0.1807523024         0.1975708966
s   1 1.0 
        0.0715966963         0.0986460794
p   5 1.0 
       72.2404627600         0.7110832529
       16.8077072080         0.9129911998
        5.2259410747         0.9549325132
        1.8508350671         0.8786667718
        0.7220678266         0.6794554600
p   1 1.0 
        0.2949101806         0.3097792288
p   1 1.0 
        0.1220114184         0.1027875898
p   1 1.0 
        0.0498653936         0.0335883873
d   1 1.0 
        1.1100000000         3.4220416922
d   1 1.0 
        0.4020000000         0.5785830099
d   1 1.0 
        0.1450000000         0.0971323928
f   1 1.0 
        0.8820000000         4.2983759315
f   1 1.0 
        0.3110000000         0.4118233381
g   1 1.0 
        0.6730000000         2.2156995737

[5D]
[9G]
[MO]
 Sym=     1a
 Ene= -7.68270289488686E+00
 Spin= Alpha
 Occup= 2.000000
  1      -0.541489827206
  2       0.000280930390
  3      -0.376114919301
  4      -0.182076431927
  5      -0.006771262921
  6       0.010364848064
  7       0.002484292334
  8       0.000000000000
  9       0.000000000000
 10       0.000000000000
 11      -0.000000000000
 12      -0.000000000000
 13      -0.000000000000
 14       0.000000000000
 15       0.000000000000
 16       0.000000000000
 17      -0.000000000000
 18      -0.000000000000
 19      -0.000000000000
 20      -0.000025346610
 21       0.000003836792
 22      -0.000030010984
 23      -0.000050910642
 24      -0.000013233771
 25       0.000235595707
 26      -0.000035662823
 27       0.000278950866
 28       0.000473212338
 29       0.000123007363
 30      -0.000012324026
 31       0.000001865525
 32      -0.000014591937
 33      -0.000024753767
 34      -0.000006434523
 35      -0.000000000000
 36       0.000000000000
 37       0.000000000000
 38      -0.000000000000
 39      -0.000000000000
 40       0.000000000000
 41      -0.000000000000
 42       0.000000000000
 43      -0.000000000000
 44       0.000000000000
 45       0.000000000000
 46       0.000000000000
 47      -0.000000000000
 48      -0.000000000000
 49       0.000000155797
 50      -0.000000089658
 51       0.000000701294
 52       0.000000317542
 53       0.000000082542
 54       0.000000260896
 55      -0.000000650422
 56      -0.000000752494
 57      -0.000000419557
 Sym=     1a
 Ene= -4.73404737746380E-01
 Spin= Alpha
 Occup= 1.889906
  1      -0.104283832131
  2      -0.014120403539
  3      -0.134590366601
  4      -0.099741389515
  5       0.298380833612
  6       0.602584438222
  7       0.238050717585
  8       0.000000000000
  9       0.000000000000
 10       0.000000000000
 11       0.000000000000
 12       0.000000000000
 13       0.000000000000
 14       0.000000000000
 15       0.000000000000
 16       0.000000000000
 17       0.000000000000
 18       0.000000000000
 19       0.000000000000
 20       0.000343178701
 21      -0.000051947981
 22       0.000406331665
 23       0.000689301165
 24       0.000179177743
 25       0.003534204572
 26      -0.000534983061
 27       0.004184581451
 28       0.007098725303
 29       0.001845250876
 30      -0.000401450607
 31       0.000060768773
 32      -0.000475326974
 33      -0.000806344830
 34      -0.000209602209
 35       0.000000000000
 36      -0.000000000000
 37       0.000000000000
 38       0.000000000000
 39       0.000000000000
 40      -0.000000000000
 41      -0.000000000000
 42       0.000000000000
 43      -0.000000000000
 44       0.000000000000
 45       0.000000000000
 46       0.000000000000
 47      -0.000000000000
 48      -0.000000000000
 49       0.000005030545
 50      -0.000002894981
 51       0.000022644238
 52       0.000010253179
 53       0.000002665223
 54       0.000008424111
 55      -0.000021001602
 56      -0.000024297424
 57      -0.000013547176
 Sym=     1a
 Ene= -7.99552809621644E-02
 Spin= Alpha
 Occup= 1.000000
  1       0.000000000000
  2       0.000000000000
  3       0.000000000000
  4       0.000000000000
  5       0.000000000000
  6       0.000000000000
  7      -0.000000000000
  8      -0.037258618869
  9       0.291433013008
 10      -0.084493511102
 11      -0.044829137460
 12       0.350648816227
 13      -0.101661611157
 14      -0.046414925475
 15       0.363052683924
 16      -0.105257793766
 17      -0.018175718889
 18       0.142168568780
 19      -0.041218122204
 20       0.000000000000
 21       0.000000000000
 22      -0.000000000000
 23       0.000000000000
 24      -0.000000000000
 25       0.000000000000
 26       0.000000000000
 27      -0.000000000000
 28       0.000000000000
 29      -0.000000000000
 30       0.000000000000
 31       0.000000000000
 32      -0.000000000000
 33       0.000000000000
 34      -0.000000000000
 35       0.000071716747
 36       0.000009143740
 37      -0.000071521374
 38       0.000094836975
 39       0.000024652033
 40      -0.000051785857
 41       0.000129103940
 42       0.000257325172
 43       0.000032808437
 44      -0.000256624160
 45       0.000340282318
 46       0.000088453380
 47      -0.000185811613
 48       0.000463234810
 49      -0.000000000000
 50      -0.000000000000
 51       0.000000000000
 52      -0.000000000000
 53      -0.000000000000
 54       0.000000000000
 55      -0.000000000000
 56       0.000000000000
 57      -0.000000000000
 Sym=     1a
 Ene= 1.24689188661053E-01
 Spin= Alpha
 Occup= 0.055047
  1      -0.000000000000
  2      -0.000000000000
  3      -0.000000000000
  4      -0.000000000000
  5       0.000000000000
  6       0.000000000000
  7      -0.000000000000
  8      -0.309923843712
  9      -0.021428356722
 10       0.062755159998
 11      -0.571216940857
 12      -0.039494348765
 13       0.115663287108
 14      -0.204754442863
 15      -0.014156868957
 16       0.041459855648
 17      -0.022178557272
 18      -0.001533441348
 19       0.004490841664
 20      -0.000000000000
 21       0.000000000000
 22      -0.000000000000
 23      -0.000000000000
 24      -0.000000000000
 25      -0.000000000000
 26       0.000000000000
 27      -0.000000000000
 28      -0.000000000000
 29      -0.000000000000
 30      -0.000000000000
 31       0.000000000000
 32      -0.000000000000
 33      -0.000000000000
 34      -0.000000000000
 35      -0.000178561847
 36       0.000399741635
 37      -0.000285858989
 38      -0.000524602311
 39       0.000875371108
 40      -0.001980364323
 41      -0.000663629090
 42      -0.000223197028
 43       0.000499665223
 44      -0.000357315284
 45      -0.000655737376
 46       0.001094188000
 47      -0.002475396843
 48      -0.000829516739
 49      -0.000000000000
 50       0.000000000000
 51      -0.000000000000
 52      -0.000000000000
 53       0.000000000000
 54      -0.000000000000
 55      -0.000000000000
 56      -0.000000000000
 57      -0.000000000000
 Sym=     1a
 Ene= 1.24689188661050E-01
 Spin= Alpha
 Occup= 0.055047
  1       0.000000000000
  2       0.000000000000
  3       0.000000000000
  4       0.000000000000
  5      -0.000000000000
  6      -0.000000000000
  7       0.000000000000
  8       0.053901396453
  9       0.093305505109
 10       0.298058544007
 11       0.099345021091
 12       0.171970263904
 13       0.549348148452
 14       0.035610523760
 15       0.061643262054
 16       0.196915507978
 17       0.003857254718
 18       0.006677064482
 19       0.021329460843
 20       0.000000000000
 21      -0.000000000000
 22       0.000000000000
 23       0.000000000000
 24       0.000000000000
 25       0.000000000000
 26      -0.000000000000
 27       0.000000000000
 28       0.000000000000
 29       0.000000000000
 30       0.000000000000
 31      -0.000000000000
 32       0.000000000000
 33       0.000000000000
 34       0.000000000000
 35      -0.000848087776
 36       0.000126078514
 37      -0.001584309669
 38      -0.001269721233
 39      -0.000543070380
 40       0.000192909621
 41       0.000698286680
 42      -0.001060084642
 43       0.000157594415
 44      -0.001980340238
 45      -0.001587113995
 46      -0.000678821916
 47       0.000241131321
 48       0.000872837702
 49      -0.000000000000
 50      -0.000000000000
 51      -0.000000000000
 52      -0.000000000000
 53      -0.000000000000
 54       0.000000000000
 55       0.000000000000
 56      -0.000000000000
 57       0.000000000000
 Sym=     1a
 Ene= 1.35206041525015E-01
 Spin= Alpha
 Occup= 0.000000
  1      -0.000000000000
  2       0.000000000000
  3      -0.000000000000
  4       0.000000000000
  5      -0.000000000000
  6       0.000000000000
  7      -0.000000000000
  8       0.004519273640
  9      -0.029297421729
 10      -0.103044809815
 11      -0.004697488227
 12       0.030452746310
 13       0.107108314200
 14       0.039943889771
 15      -0.258947140040
 16      -0.910768157141
 17      -0.065248221295
 18       0.422989358171
 19       1.487736988224
 20      -0.000000000000
 21       0.000000000000
 22      -0.000000000000
 23      -0.000000000000
 24      -0.000000000000
 25       0.000000000000
 26      -0.000000000000
 27       0.000000000000
 28       0.000000000000
 29       0.000000000000
 30      -0.000000000000
 31       0.000000000000
 32      -0.000000000000
 33      -0.000000000000
 34      -0.000000000000
 35      -0.000299944380
 36       0.000072105156
 37      -0.000556807335
 38      -0.000468031702
 39      -0.000119099505
 40      -0.000080775063
 41       0.000187196831
 42       0.000209662541
 43      -0.000050401845
 44       0.000389210962
 45       0.000327156374
 46       0.000083251118
 47       0.000056462151
 48      -0.000130851471
 49      -0.000000000000
 50       0.000000000000
 51      -0.000000000000
 52      -0.000000000000
 53      -0.000000000000
 54      -0.000000000000
 55       0.000000000000
 56       0.000000000000
 57       0.000000000000
 Sym=     1a
 Ene= 1.35206041525017E-01
 Spin= Alpha
 Occup= 0.000000
  1      -0.000000000000
  2       0.000000000000
  3      -0.000000000000
  4       0.000000000000
  5      -0.000000000000
  6       0.000000000000
  7      -0.000000000000
  8      -0.106328747615
  9      -0.013807570711
 10      -0.000737567319
 11       0.110521751931
 12       0.014352063192
 13       0.000766652801
 14      -0.939793451907
 15      -0.122039098851
 16      -0.006519036028
 17       1.535149718103
 18       0.199350493259
 19       0.010648825335
 20      -0.000000000000
 21      -0.000000000000
 22      -0.000000000000
 23      -0.000000000000
 24      -0.000000000000
 25      -0.000000000000
 26       0.000000000000
 27       0.000000000000
 28      -0.000000000000
 29      -0.000000000000
 30      -0.000000000000
 31      -0.000000000000
 32      -0.000000000000
 33      -0.000000000000
 34      -0.000000000000
 35      -0.000002146922
 36      -0.000125876530
 37      -0.000020144304
 38       0.000083780145
 39      -0.000336044463
 40       0.000683879644
 41       0.000275887946
 42       0.000001500709
 43       0.000087988290
 44       0.000014080964
 45      -0.000058562718
 46       0.000234896670
 47      -0.000478035107
 48      -0.000192846980
 49      -0.000000000000
 50      -0.000000000000
 51      -0.000000000000
 52      -0.000000000000
 53      -0.000000000000
 54      -0.000000000000
 55       0.000000000000
 56      -0.000000000000
 57       0.000000000000
 Sym=     1a
 Ene= 1.59646150614952E-01
 Spin= Alpha
 Occup= 0.000000
  1      -0.000000000000
  2      -0.000000000000
  3      -0.000000000000
  4      -0.000000000000
  5       0.000000000000
  6      -0.000000000000
  7       0.000000000000
  8       0.019511301130
  9      -0.152615353139
 10       0.044246898804
 11      -0.011845628686
 12       0.092655266455
 13      -0.026863012889
 14       0.135471274868
 15      -1.059642117973
 16       0.307215994973
 17      -0.192656320356
 18       1.506937552199
 19      -0.436897808805
 20      -0.000000000000
 21      -0.000000000000
 22       0.000000000000
 23      -0.000000000000
 24       0.000000000000
 25       0.000000000000
 26       0.000000000000
 27      -0.000000000000
 28       0.000000000000
 29      -0.000000000000
 30      -0.000000000000
 31      -0.000000000000
 32       0.000000000000
 33      -0.000000000000
 34       0.000000000000
 35       0.000441442054
 36       0.000056282967
 37      -0.000440239467
 38       0.000583755271
 39       0.000151742021
 40      -0.000318760343
 41       0.000794680616
 42       0.000477955502
 43       0.000060938357
 44      -0.000476653445
 45       0.000632040019
 46       0.000164293214
 47      -0.000345126294
 48       0.000860411847
 49       0.000000000000
 50      -0.000000000000
 51       0.000000000000
 52      -0.000000000000
 53      -0.000000000000
 54      -0.000000000000
 55      -0.000000000000
 56       0.000000000000
 57      -0.000000000000
 Sym=     1a
 Ene= 2.10066417904232E-01
 Spin= Alpha
 Occup= 0.000000
  1       0.062553919000
  2      -0.006822952667
  3       0.131015701306
  4      -0.094694751197
  5       0.421956966786
  6      -2.255207080884
  7       2.149009768538
  8      -0.000000000000
  9      -0.000000000000
 10      -0.000000000000
 11      -0.000000000000
 12       0.000000000000
 13       0.000000000000
 14      -0.000000000000
 15      -0.000000000000
 16      -0.000000000000
 17       0.000000000000
 18       0.000000000000
 19       0.000000000000
 20       0.000736059702
 21      -0.000111419547
 22       0.000871512023
 23       0.001478433273
 24       0.000384305657
 25      -0.005486399923
 26       0.000830492679
 27      -0.006496026724
 28      -0.011019861798
 29      -0.002864515638
 30       0.012212609582
 31      -0.001848659047
 32       0.014460017374
 33       0.024529978070
 34       0.006376350907
 35      -0.000000000000
 36       0.000000000000
 37      -0.000000000000
 38       0.000000000000
 39      -0.000000000000
 40      -0.000000000000
 41       0.000000000000
 42       0.000000000000
 43      -0.000000000000
 44       0.000000000000
 45      -0.000000000000
 46       0.000000000000
 47       0.000000000000
 48      -0.000000000000
 49       0.000002118924
 50      -0.000001219400
 51       0.000009538017
 52       0.000004318759
 53       0.000001122623
 54       0.000003548334
 55      -0.000008846119
 56      -0.000010234358
 57      -0.000005706228
 Sym=     1a
 Ene= 4.10201109927897E-01
 Spin= Alpha
 Occup= 0.000000
  1      -0.000000000000
  2      -0.000000000000
  3      -0.000000000000
  4      -0.000000000000
  5       0.000000000000
  6       0.000000000000
  7      -0.000000000000
  8      -0.000000000000
  9      -0.000000000000
 10      -0.000000000000
 11      -0.000000000000
 12       0.000000000000
 13       0.000000000000
 14       0.000000000000
 15      -0.000000000000
 16      -0.000000000000
 17      -0.000000000000
 18       0.000000000000
 19       0.000000000000
 20       0.047698456888
 21      -0.014454819796
 22       0.014120291673
 23      -0.030153789363
 24      -0.011566574238
 25      -0.143420323922
 26       0.043462935126
 27      -0.042457071732
 28       0.090666795533
 29       0.034778521823
 30       0.859514311016
 31      -0.260472251896
 32       0.254444138455
 33      -0.543363772748
 34      -0.208426786425
 35       0.000000000000
 36       0.000000000000
 37       0.000000000000
 38      -0.000000000000
 39       0.000000000000
 40       0.000000000000
 41       0.000000000000
 42      -0.000000000000
 43      -0.000000000000
 44      -0.000000000000
 45       0.000000000000
 46       0.000000000000
 47       0.000000000000
 48      -0.000000000000
 49       0.000444568400
 50      -0.000216274505
 51       0.001186569444
 52       0.000584551853
 53      -0.000106367373
 54       0.000234429810
 55       0.000169717312
 56       0.000996206694
 57       0.000712088351
 Sym=     1a
 Ene= 4.10201109927897E-01
 Spin= Alpha
 Occup= 0.000000
  1       0.000000000000
  2      -0.000000000000
  3       0.000000000000
  4      -0.000000000000
  5       0.000000000000
  6      -0.000000000000
  7       0.000000000000
  8       0.000000000000
  9       0.000000000000
 10       0.000000000000
 11      -0.000000000000
 12      -0.000000000000
 13      -0.000000000000
 14       0.000000000000
 15       0.000000000000
 16       0.000000000000
 17      -0.000000000000
 18      -0.000000000000
 19      -0.000000000000
 20      -0.010443155789
 21      -0.056407298257
 22      -0.010707576967
 23       0.010947049787
 24      -0.014183475994
 25       0.031400613013
 26       0.169606178383
 27       0.032195677958
 28      -0.032915727864
 29       0.042647055149
 30      -0.188183065838
 31      -1.016445463031
 32      -0.192947869599
 33       0.197263110158
 34      -0.255582704189
 35       0.000000000000
 36      -0.000000000000
 37      -0.000000000000
 38      -0.000000000000
 39      -0.000000000000
 40       0.000000000000
 41       0.000000000000
 42      -0.000000000000
 43       0.000000000000
 44       0.000000000000
 45       0.000000000000
 46       0.000000000000
 47       0.000000000000
 48       0.000000000000
 49      -0.000097334324
 50      -0.000256763339
 51      -0.000298668827
 52       0.000173067114
 53      -0.001134856904
 54       0.001195909374
 55       0.000463130028
 56      -0.000537014099
 57       0.000416061159
 Sym=     1a
 Ene= 4.15773745021254E-01
 Spin= Alpha
 Occup= 0.000000
  1      -0.000000000000
  2      -0.000000000000
  3      -0.000000000000
  4      -0.000000000000
  5       0.000000000000
  6       0.000000000000
  7      -0.000000000000
  8      -0.000000000000
  9      -0.000000000000
 10       0.000000000000
 11       0.000000000000
 12      -0.000000000000
 13      -0.000000000000
 14      -0.000000000000
 15      -0.000000000000
 16       0.000000000000
 17       0.000000000000
 18      -0.000000000000
 19      -0.000000000000
 20       0.028266379493
 21       0.003996692327
 22      -0.051966799820
 23       0.013497722566
 24       0.012942238495
 25      -0.081630620504
 26      -0.011542068014
 27       0.150075184410
 28      -0.038980141363
 29      -0.037375956101
 30       0.498998883298
 31       0.070555375107
 32      -0.917392872537
 33       0.238281258806
 34       0.228475053126
 35       0.000000000000
 36      -0.000000000000
 37      -0.000000000000
 38      -0.000000000000
 39       0.000000000000
 40       0.000000000000
 41      -0.000000000000
 42      -0.000000000000
 43       0.000000000000
 44       0.000000000000
 45       0.000000000000
 46      -0.000000000000
 47       0.000000000000
 48      -0.000000000000
 49       0.001380676060
 50       0.000023409247
 51      -0.000737040412
 52       0.001663600888
 53       0.000499803190
 54      -0.000227361410
 55       0.001127924350
 56      -0.000367815015
 57      -0.000597115426
 Sym=     1a
 Ene= 4.15773745021255E-01
 Spin= Alpha
 Occup= 0.000000
  1       0.000000000000
  2      -0.000000000000
  3       0.000000000000
  4      -0.000000000000
  5       0.000000000000
  6      -0.000000000000
  7       0.000000000000
  8       0.000000000000
  9       0.000000000000
 10       0.000000000000
 11      -0.000000000000
 12      -0.000000000000
 13      -0.000000000000
 14       0.000000000000
 15       0.000000000000
 16       0.000000000000
 17      -0.000000000000
 18       0.000000000000
 19      -0.000000000000
 20       0.004370693374
 21       0.017864661903
 22      -0.005830452100
 23       0.017297420135
 24      -0.056513326517
 25      -0.012622147531
 26      -0.051591447593
 27       0.016837792150
 28      -0.049953307217
 29       0.163205121884
 30       0.077157780792
 31       0.315372767936
 32      -0.102927546405
 33       0.305358998431
 34      -0.997654716646
 35       0.000000000000
 36       0.000000000000
 37       0.000000000000
 38      -0.000000000000
 39       0.000000000000
 40       0.000000000000
 41       0.000000000000
 42       0.000000000000
 43      -0.000000000000
 44      -0.000000000000
 45      -0.000000000000
 46      -0.000000000000
 47       0.000000000000
 48      -0.000000000000
 49       0.000213487253
 50       0.000465030249
 51      -0.000054975374
 52       0.000365850459
 53      -0.000340565921
 54      -0.001318973946
 55      -0.000340556515
 56      -0.001161050210
 57       0.001888057948
 Sym=     1a
 Ene= 4.17638822706769E-01
 Spin= Alpha
 Occup= 0.000000
  1       0.000343978539
  2      -0.000910304811
  3       0.003734500438
  4      -0.009702243723
  5       0.035129676891
  6      -0.077083727265
  7       0.061791892225
  8       0.000000000000
  9       0.000000000000
 10       0.000000000000
 11      -0.000000000000
 12      -0.000000000000
 13      -0.000000000000
 14       0.000000000000
 15       0.000000000000
 16       0.000000000000
 17      -0.000000000000
 18      -0.000000000000
 19      -0.000000000000
 20      -0.024078188964
 21       0.003644787101
 22      -0.028509142820
 23      -0.048362918941
 24      -0.012571513158
 25       0.068494625884
 26      -0.010368235305
 27       0.081099250224
 28       0.137576793855
 29       0.035761871122
 30      -0.422463058270
 31       0.063949490043
 32      -0.500206210791
 33      -0.848549974960
 34      -0.220573063193
 35       0.000000000000
 36       0.000000000000
 37      -0.000000000000
 38      -0.000000000000
 39       0.000000000000
 40       0.000000000000
 41       0.000000000000
 42       0.000000000000
 43      -0.000000000000
 44       0.000000000000
 45       0.000000000000
 46      -0.000000000000
 47      -0.000000000000
 48      -0.000000000000
 49      -0.000338207710
 50       0.000194631980
 51      -0.001522390957
 52      -0.000689329777
 53      -0.000179185181
 54      -0.000566359983
 55       0.001411955125
 56       0.001633536021
 57       0.000910787886
 Sym=     1a
 Ene= 6.23965364333341E-01
 Spin= Alpha
 Occup= 0.000000
  1       0.000000000000
  2       0.000000000000
  3       0.000000000000
  4      -0.000000000000
  5       0.000000000000
  6      -0.000000000000
  7       0.000000000000
  8      -0.172166753733
  9      -0.020143363777
 10       0.006441373479
 11      -1.386161891138
 12      -0.162179762479
 13       0.051861269665
 14       2.519245437257
 15       0.294749573807
 16      -0.094253974091
 17      -1.101782277915
 18      -0.128907589567
 19       0.041221612131
 20      -0.000000000000
 21      -0.000000000000
 22       0.000000000000
 23      -0.000000000000
 24       0.000000000000
 25      -0.000000000000
 26       0.000000000000
 27      -0.000000000000
 28      -0.000000000000
 29      -0.000000000000
 30       0.000000000000
 31      -0.000000000000
 32       0.000000000000
 33       0.000000000000
 34       0.000000000000
 35       0.000066963075
 36      -0.000745584280
 37       0.000031046011
 38       0.000607368720
 39      -0.001908002034
 40       0.003968444057
 41       0.001542787147
 42      -0.000165502998
 43       0.001842753404
 44      -0.000076731959
 45      -0.001501145890
 46       0.004715734141
 47      -0.009808232275
 48      -0.003813085045
 49      -0.000000000000
 50       0.000000000000
 51      -0.000000000000
 52      -0.000000000000
 53       0.000000000000
 54      -0.000000000000
 55       0.000000000000
 56       0.000000000000
 57       0.000000000000
 Sym=     1a
 Ene= 6.23965364333325E-01
 Spin= Alpha
 Occup= 0.000000
  1       0.000000000000
  2      -0.000000000000
  3       0.000000000000
  4      -0.000000000000
  5       0.000000000000
  6      -0.000000000000
  7       0.000000000000
  8      -0.000573234493
  9      -0.048368766265
 10      -0.166579624623
 11      -0.004615268580
 12      -0.389430241692
 13      -1.341178377862
 14       0.008387905039
 15       0.707760302591
 16       2.437491270375
 17      -0.003668417926
 18      -0.309536239254
 19      -1.066027408269
 20       0.000000000000
 21      -0.000000000000
 22       0.000000000000
 23       0.000000000000
 24       0.000000000000
 25      -0.000000000000
 26       0.000000000000
 27      -0.000000000000
 28      -0.000000000000
 29      -0.000000000000
 30       0.000000000000
 31      -0.000000000000
 32       0.000000000000
 33       0.000000000000
 34       0.000000000000
 35      -0.001731724435
 36       0.000382859216
 37      -0.003218993930
 38      -0.002679122663
 39      -0.000776298679
 40      -0.000285271311
 41       0.001153413428
 42       0.004280054161
 43      -0.000946258046
 44       0.007955924212
 45       0.006621602068
 46       0.001918665767
 47       0.000705064061
 48      -0.002850726040
 49      -0.000000000000
 50      -0.000000000000
 51      -0.000000000000
 52      -0.000000000000
 53       0.000000000000
 54      -0.000000000000
 55       0.000000000000
 56      -0.000000000000
 57      -0.000000000000
 Sym=     1a
 Ene= 6.53635855805417E-01
 Spin= Alpha
 Occup= 0.000000
  1      -0.000000000000
  2      -0.000000000000
  3       0.000000000000
  4      -0.000000000000
  5       0.000000000000
  6      -0.000000000000
  7       0.000000000000
  8       0.028021669914
  9      -0.219182566087
 10       0.063546351149
 11       0.174686702262
 12      -1.366381082239
 13       0.396147073216
 14      -0.297969417954
 15       2.330685567395
 16      -0.675722372120
 17       0.128042592589
 18      -1.001535743526
 19       0.290369545273
 20       0.000000000000
 21      -0.000000000000
 22      -0.000000000000
 23      -0.000000000000
 24       0.000000000000
 25       0.000000000000
 26       0.000000000000
 27      -0.000000000000
 28      -0.000000000000
 29      -0.000000000000
 30       0.000000000000
 31      -0.000000000000
 32      -0.000000000000
 33       0.000000000000
 34       0.000000000000
 35       0.002246453164
 36       0.000286418222
 37      -0.002240333325
 38       0.002970670478
 39       0.000772199524
 40      -0.001622138570
 41       0.004044047842
 42      -0.004328157492
 43      -0.000551831302
 44       0.004316366625
 45      -0.005723479968
 46      -0.001487768011
 47       0.003125313858
 48      -0.007791516086
 49       0.000000000000
 50       0.000000000000
 51       0.000000000000
 52       0.000000000000
 53      -0.000000000000
 54       0.000000000000
 55      -0.000000000000
 56       0.000000000000
 57       0.000000000000
 Sym=     1a
 Ene= 1.15611650758441E+00
 Spin= Alpha
 Occup= 0.000000
  1      -0.114113084673
  2      -0.079041967727
  3       0.047340732512
  4      -0.816113011301
  5       3.553653096641
  6      -4.020823183334
  7       1.508416332451
  8      -0.000000000000
  9      -0.000000000000
 10       0.000000000000
 11       0.000000000000
 12       0.000000000000
 13       0.000000000000
 14      -0.000000000000
 15      -0.000000000000
 16      -0.000000000000
 17       0.000000000000
 18       0.000000000000
 19       0.000000000000
 20       0.003629242816
 21      -0.000549369283
 22       0.004297108969
 23       0.007289617021
 24       0.001894871491
 25      -0.007562983927
 26       0.001144831378
 27      -0.008954751092
 28      -0.015190842599
 29      -0.003948725218
 30       0.006127851697
 31      -0.000927591143
 32       0.007255520732
 33       0.012308267675
 34       0.003199425354
 35      -0.000000000000
 36       0.000000000000
 37      -0.000000000000
 38      -0.000000000000
 39      -0.000000000000
 40       0.000000000000
 41      -0.000000000000
 42      -0.000000000000
 43      -0.000000000000
 44       0.000000000000
 45       0.000000000000
 46       0.000000000000
 47      -0.000000000000
 48      -0.000000000000
 49      -0.000006090387
 50       0.000003504900
 51      -0.000027414957
 52      -0.000012413333
 53      -0.000003226736
 54      -0.000010198914
 55       0.000025426247
 56       0.000029416439
 57       0.000016401313
 Sym=     1a
 Ene= 1.22234683396066E+00
 Spin= Alpha
 Occup= 0.000000
  1       0.000000000000
  2       0.000000000000
  3      -0.000000000000
  4       0.000000000000
  5      -0.000000000000
  6       0.000000000000
  7      -0.000000000000
  8       0.000000000000
  9      -0.000000000000
 10      -0.000000000000
 11      -0.000000000000
 12       0.000000000000
 13       0.000000000000
 14       0.000000000000
 15      -0.000000000000
 16      -0.000000000000
 17       0.000000000000
 18       0.000000000000
 19       0.000000000000
 20       0.000000000000
 21       0.000000000000
 22      -0.000000000000
 23       0.000000000000
 24       0.000000000000
 25      -0.000000000000
 26      -0.000000000000
 27       0.000000000000
 28      -0.000000000000
 29       0.000000000000
 30      -0.000000000000
 31       0.000000000000
 32      -0.000000000000
 33       0.000000000000
 34       0.000000000000
 35       0.070800667502
 36       0.070878987191
 37       0.034201747237
 38      -0.068688797430
 39       0.010200396394
 40       0.015821040851
 41       0.029453375363
 42      -0.576914924786
 43      -0.577553107998
 44      -0.278690853219
 45       0.559706480193
 46      -0.083117308441
 47      -0.128916787290
 48      -0.239999034352
 49      -0.000000000000
 50       0.000000000000
 51       0.000000000000
 52       0.000000000000
 53      -0.000000000000
 54       0.000000000000
 55       0.000000000000
 56       0.000000000000