[Molden Format]
[Title]
 Molden file created by orca_2mkl for BaseName=mol

[Atoms] AU
Kr   1  36          0.0000000000         0.0000000000         0.0000000000 
[GTO]
  1 0
s  11 1.0 
 11713823.0079999994         0.9365938947
  1755253.3979000000         1.7523164723
   399717.4192400000         3.0347018503
   113285.7926000000         4.9720315573
    36977.2052930000         7.7881078816
    13355.0365800000        11.7095431522
     5210.9012988000        16.7555956924
     2162.1137020000        22.3116022825
      943.2929102300        26.1711646506
      429.2072433100        24.4101514504
      202.4072084000        14.7329393229
s   4 1.0 
     3260.4985521000         1.9006154230
     1011.1069716000         8.0007488103
      392.4435927300        18.8184577035
      173.2170213200        23.0737492162
s   1 1.0 
       96.6199884670        21.9639440234
s   1 1.0 
       38.1582848670        10.9421263830
s   1 1.0 
       18.9595175700         6.4756080463
s   1 1.0 
        9.2505996199         3.7803978330
s   1 1.0 
        4.3486517621         2.1462290329
s   1 1.0 
        2.0380324209         1.2156775834
s   1 1.0 
        0.6911015254         0.5402148034
s   1 1.0 
        0.3350606514         0.3138720642
s   1 1.0 
        0.1407444112         0.1637696652
p  10 1.0 
    28609.3357670000        32.1716112637
     6773.1236364000        47.2118581426
     2199.8011079000        66.5775260326
      841.5020159000        87.4996564732
      356.9211028800       104.3609502912
      162.7117435100       107.5930673673
       78.0042649940        88.1138559985
       38.6825799970        50.6815950617
       19.5891586850        16.1351479500
        9.7990863417         1.9509878220
p   5 1.0 
      261.3778686900        -3.1216688093
      100.0993214600        -6.9025332228
       44.0121393630        -7.1649943894
       10.8540107390         8.9978160708
        5.4351930182         8.6291361293
p   1 1.0 
        2.7062805542         4.9477313345
p   1 1.0 
        1.3195633408         2.0159413366
p   1 1.0 
        0.5800445597         0.7215505885
p   1 1.0 
        0.2432997626         0.2435662975
p   1 1.0 
        0.0968237251         0.0769869868
d   7 1.0 
      665.3505738600       171.9712148877
      200.1799536600       192.5690186512
       77.5450855700       187.7312254638
       33.6778543450       146.7182727523
       15.6249283340        88.7347057354
        7.4427867423        37.4658315169
        3.5336073535        10.5963113523
d   1 1.0 
        1.6363725142         6.7493801794
d   1 1.0 
        0.6784568473         1.4458857779
d   1 1.0 
        0.2700000000         0.2883079850
f   1 1.0 
        0.4130000000         0.7796284797
f   1 1.0 
        0.9557000000         5.1490089621
g   1 1.0 
        0.7395000000         2.8711073961

[5D]
[9G]
[MO]
 Sym=     1a
 Ene= -5.20166123663893E+02
 Spin= Alpha
 Occup= 2.000000
  1       0.859238370831
  2       0.007540481813
  3       0.164045410200
  4       0.016836591936
  5      -0.003421959318
  6       0.001650707649
  7      -0.000863495109
  8       0.000348039065
  9      -0.000155837010
 10       0.000091858307
 11      -0.000022748807
 12      -0.000000000000
 13      -0.000000000000
 14       0.000000000000
 15       0.000000000000
 16      -0.000000000000
 17      -0.000000000000
 18      -0.000000000000
 19       0.000000000000
 20      -0.000000000000
 21       0.000000000000
 22      -0.000000000000
 23       0.000000000000
 24      -0.000000000000
 25       0.000000000000
 26       0.000000000000
 27      -0.000000000000
 28      -0.000000000000
 29       0.000000000000
 30       0.000000000000
 31       0.000000000000
 32      -0.000000000000
 33      -0.000000000000
 34      -0.000000000000
 35      -0.000000000000
 36       0.000000000000
 37       0.000000000000
 38       0.000000000000
 39       0.000000000000
 40       0.000000000000
 41      -0.000000000000
 42      -0.000000000000
 43      -0.000000000000
 44       0.000000000000
 45       0.000000000000
 46      -0.000000000000
 47       0.000000000000
 48       0.000000000000
 49      -0.000000000000
 50       0.000000000000
 51       0.000000000000
 52       0.000000000000
 53       0.000000000000
 54       0.000000000000
 55       0.000000000000
 56       0.000000000000
 57       0.000000000000
 58      -0.000000000000
 59       0.000000000000
 60       0.000000000000
 61      -0.000000000000
 62      -0.000000000000
 63      -0.000000000000
 64       0.000000000000
 65       0.000000000000
 66       0.000000000000
 67      -0.000000000000
 68      -0.000000000000
 69       0.000000000000
 70       0.000000000000
 71       0.000000000000
 72       0.000000000000
 73      -0.000000000000
 74       0.000000000000
 75       0.000000000000
 Sym=     1a
 Ene= -6.99035841467971E+01
 Spin= Alpha
 Occup= 2.000000
  1       0.272749644506
  2       0.162885372031
  3       0.064452893805
  4      -0.407285229492
  5      -0.567302804323
  6      -0.181871026292
  7      -0.008142071560
  8      -0.001778121662
  9       0.000427405769
 10      -0.000181135403
 11       0.000061836723
 12      -0.000000000000
 13      -0.000000000000
 14       0.000000000000
 15       0.000000000000
 16      -0.000000000000
 17      -0.000000000000
 18      -0.000000000000
 19       0.000000000000
 20      -0.000000000000
 21       0.000000000000
 22      -0.000000000000
 23       0.000000000000
 24      -0.000000000000
 25       0.000000000000
 26       0.000000000000
 27       0.000000000000
 28      -0.000000000000
 29       0.000000000000
 30       0.000000000000
 31       0.000000000000
 32      -0.000000000000
 33      -0.000000000000
 34      -0.000000000000
 35      -0.000000000000
 36      -0.000000000000
 37       0.000000000000
 38      -0.000000000000
 39      -0.000000000000
 40      -0.000000000000
 41       0.000000000000
 42      -0.000000000000
 43       0.000000000000
 44       0.000000000000
 45      -0.000000000000
 46       0.000000000000
 47      -0.000000000000
 48      -0.000000000000
 49      -0.000000000000
 50      -0.000000000000
 51       0.000000000000
 52       0.000000000000
 53       0.000000000000
 54       0.000000000000
 55       0.000000000000
 56       0.000000000000
 57       0.000000000000
 58      -0.000000000000
 59       0.000000000000
 60      -0.000000000000
 61      -0.000000000000
 62      -0.000000000000
 63      -0.000000000000
 64      -0.000000000000
 65       0.000000000000
 66       0.000000000000
 67      -0.000000000002
 68      -0.000000000000
 69      -0.000000000000
 70      -0.000000000000
 71       0.000000000000
 72       0.000000000000
 73       0.000000000000
 74       0.000000000002
 75       0.000000000000
 Sym=     1a
 Ene= -6.30103670973084E+01
 Spin= Alpha
 Occup= 2.000000
  1       0.000000000000
  2       0.000000000000
  3       0.000000000000
  4      -0.000000000000
  5      -0.000000000000
  6       0.000000000000
  7      -0.000000000000
  8       0.000000000000
  9      -0.000000000000
 10       0.000000000000
 11      -0.000000000000
 12       0.000000000000
 13      -0.997659880402
 14       0.000000000000
 15       0.000000000000
 16      -0.003161376468
 17       0.000000000000
 18      -0.000000000000
 19      -0.004338154597
 20      -0.000000000000
 21       0.000000000000
 22       0.001817793760
 23       0.000000000000
 24       0.000000000000
 25      -0.000901468250
 26      -0.000000000000
 27       0.000000000000
 28       0.000384307928
 29       0.000000000000
 30      -0.000000000000
 31      -0.000109958704
 32      -0.000000000000
 33       0.000000000000
 34       0.000000000000
 35      -0.000000000000
 36      -0.000000000000
 37      -0.000000000000
 38      -0.000000000000
 39       0.000000000000
 40       0.000000000000
 41      -0.000000000000
 42       0.000000000000
 43      -0.000000000000
 44      -0.000000000000
 45       0.000000000000
 46       0.000000000000
 47       0.000000000000
 48      -0.000000000000
 49       0.000000000000
 50      -0.000000000000
 51      -0.000000000000
 52       0.000000000000
 53       0.000000000000
 54       0.000000000000
 55      -0.000000000004
 56       0.000000000000
 57       0.000000000000
 58      -0.000000000000
 59       0.000000000005
 60      -0.000000000000
 61      -0.000000000000
 62       0.000000000008
 63       0.000000000000
 64      -0.000000000000
 65      -0.000000000000
 66      -0.000000000010
 67      -0.000000000000
 68       0.000000000000
 69       0.000000000000
 70       0.000000000000
 71      -0.000000000000
 72       0.000000000000
 73       0.000000000000
 74       0.000000000000
 75       0.000000000000
 Sym=     1a
 Ene= -6.30103670973084E+01
 Spin= Alpha
 Occup= 2.000000
  1       0.000000000000
  2       0.000000000000
  3       0.000000000000
  4      -0.000000000000
  5      -0.000000000000
  6      -0.000000000000
  7      -0.000000000000
  8       0.000000000000
  9       0.000000000000
 10      -0.000000000000
 11      -0.000000000000
 12       0.000000000000
 13      -0.000000000000
 14       0.997659880402
 15       0.000000000000
 16       0.000000000000
 17       0.003161376468
 18       0.000000000000
 19      -0.000000000000
 20       0.004338154597
 21      -0.000000000000
 22       0.000000000000
 23      -0.001817793760
 24       0.000000000000
 25      -0.000000000000
 26       0.000901468250
 27      -0.000000000000
 28       0.000000000000
 29      -0.000384307928
 30       0.000000000000
 31      -0.000000000000
 32       0.000109958704
 33       0.000000000000
 34       0.000000000000
 35      -0.000000000000
 36      -0.000000000000
 37      -0.000000000000
 38      -0.000000000000
 39      -0.000000000000
 40       0.000000000000
 41       0.000000000000
 42      -0.000000000000
 43       0.000000000000
 44       0.000000000000
 45      -0.000000000000
 46      -0.000000000000
 47       0.000000000000
 48       0.000000000000
 49      -0.000000000000
 50       0.000000000000
 51      -0.000000000000
 52      -0.000000000000
 53      -0.000000000006
 54      -0.000000000000
 55       0.000000000000
 56       0.000000000000
 57      -0.000000000000
 58      -0.000000000000
 59       0.000000000000
 60       0.000000000012
 61       0.000000000000
 62       0.000000000000
 63      -0.000000000000
 64       0.000000000000
 65       0.000000000000
 66      -0.000000000000
 67      -0.000000000000
 68      -0.000000000000
 69      -0.000000000000
 70       0.000000000000
 71       0.000000000000
 72      -0.000000000000
 73       0.000000000000
 74       0.000000000000
 75       0.000000000000
 Sym=     1a
 Ene= -6.30103670973083E+01
 Spin= Alpha
 Occup= 2.000000
  1      -0.000000000000
  2      -0.000000000000
  3      -0.000000000000
  4       0.000000000000
  5       0.000000000000
  6       0.000000000000
  7      -0.000000000000
  8       0.000000000000
  9       0.000000000000
 10      -0.000000000000
 11      -0.000000000000
 12       0.997659880402
 13      -0.000000000000
 14       0.000000000000
 15       0.003161376468
 16      -0.000000000000
 17      -0.000000000000
 18       0.004338154597
 19       0.000000000000
 20       0.000000000000
 21      -0.001817793760
 22      -0.000000000000
 23      -0.000000000000
 24       0.000901468250
 25       0.000000000000
 26       0.000000000000
 27      -0.000384307928
 28      -0.000000000000
 29      -0.000000000000
 30       0.000109958704
 31      -0.000000000000
 32       0.000000000000
 33      -0.000000000000
 34      -0.000000000000
 35       0.000000000000
 36       0.000000000000
 37       0.000000000000
 38       0.000000000000
 39       0.000000000000
 40      -0.000000000000
 41       0.000000000000
 42       0.000000000000
 43      -0.000000000000
 44      -0.000000000000
 45       0.000000000000
 46      -0.000000000000
 47      -0.000000000000
 48       0.000000000000
 49       0.000000000000
 50       0.000000000000
 51       0.000000000000
 52       0.000000000000
 53       0.000000000000
 54       0.000000000004
 55      -0.000000000000
 56       0.000000000000
 57       0.000000000000
 58       0.000000000005
 59       0.000000000000
 60       0.000000000000
 61      -0.000000000008
 62       0.000000000000
 63      -0.000000000000
 64      -0.000000000000
 65      -0.000000000010
 66      -0.000000000000
 67      -0.000000000000
 68       0.000000000000
 69       0.000000000000
 70      -0.000000000000
 71       0.000000000000
 72       0.000000000000
 73      -0.000000000000
 74       0.000000000000
 75       0.000000000000
 Sym=     1a
 Ene= -1.08493862693587E+01
 Spin= Alpha
 Occup= 2.000000
  1      -0.109121049124
  2      -0.077172141990
  3      -0.030945370824
  4       0.252108042429
  5       0.512522196329
  6       0.092682190821
  7      -0.693775534941
  8      -0.556420838426
  9      -0.044592576337
 10       0.008460754705
 11      -0.002066134752
 12       0.000000000000
 13      -0.000000000000
 14      -0.000000000000
 15      -0.000000000000
 16       0.000000000000
 17       0.000000000000
 18       0.000000000000
 19      -0.000000000000
 20       0.000000000000
 21      -0.000000000000
 22       0.000000000000
 23       0.000000000000
 24       0.000000000000
 25      -0.000000000000
 26      -0.000000000000
 27      -0.000000000000
 28       0.000000000000
 29      -0.000000000000
 30      -0.000000000000
 31      -0.000000000000
 32       0.000000000000
 33       0.000000000000
 34      -0.000000000000
 35      -0.000000000000
 36      -0.000000000000
 37       0.000000000000
 38      -0.000000000000
 39       0.000000000000
 40      -0.000000000000
 41      -0.000000000000
 42      -0.000000000000
 43       0.000000000000
 44      -0.000000000000
 45      -0.000000000000
 46      -0.000000000000
 47       0.000000000000
 48      -0.000000000000
 49       0.000000000000
 50      -0.000000000000
 51       0.000000000000
 52       0.000000000000
 53      -0.000000000000
 54       0.000000000000
 55       0.000000000000
 56       0.000000000000
 57       0.000000000000
 58       0.000000000000
 59      -0.000000000000
 60      -0.000000000000
 61       0.000000000000
 62       0.000000000000
 63      -0.000000000000
 64       0.000000000000
 65      -0.000000000000
 66       0.000000000000
 67      -0.000000000013
 68      -0.000000000000
 69       0.000000000000
 70       0.000000000000
 71      -0.000000000000
 72       0.000000000000
 73      -0.000000000000
 74       0.000000000011
 75       0.000000000000
 Sym=     1a
 Ene= -8.33144889513196E+00
 Spin= Alpha
 Occup= 2.000000
  1      -0.000000000000
  2      -0.000000000000
  3      -0.000000000000
  4       0.000000000000
  5       0.000000000000
  6       0.000000000000
  7      -0.000000000000
  8      -0.000000000000
  9       0.000000000000
 10      -0.000000000000
 11       0.000000000000
 12      -0.000000000000
 13       0.410564782082
 14      -0.000000000000
 15      -0.000000000000
 16      -0.629365378094
 17      -0.000000000000
 18       0.000000000000
 19      -0.414078519452
 20       0.000000000000
 21      -0.000000000000
 22      -0.117934196550
 23       0.000000000000
 24       0.000000000000
 25      -0.005599083618
 26      -0.000000000000
 27      -0.000000000000
 28      -0.000606107571
 29       0.000000000000
 30       0.000000000000
 31       0.000073780341
 32      -0.000000000000
 33       0.000000000000
 34       0.000000000000
 35       0.000000000000
 36       0.000000000000
 37      -0.000000000000
 38      -0.000000000000
 39      -0.000000000000
 40      -0.000000000000
 41      -0.000000000000
 42      -0.000000000000
 43       0.000000000000
 44       0.000000000000
 45       0.000000000000
 46       0.000000000000
 47       0.000000000000
 48      -0.000000000000
 49      -0.000000000000
 50      -0.000000000000
 51      -0.000000000000
 52      -0.000000000000
 53       0.000000000000
 54       0.000000000000
 55       0.000000000008
 56       0.000000000000
 57      -0.000000000000
 58      -0.000000000000
 59      -0.000000000011
 60       0.000000000000
 61       0.000000000000
 62      -0.000000000003
 63       0.000000000000
 64       0.000000000000
 65      -0.000000000000
 66       0.000000000004
 67       0.000000000000
 68      -0.000000000000
 69      -0.000000000000
 70       0.000000000000
 71       0.000000000000
 72      -0.000000000000
 73       0.000000000000
 74       0.000000000000
 75       0.000000000000
 Sym=     1a
 Ene= -8.33144889513196E+00
 Spin= Alpha
 Occup= 2.000000
  1       0.000000000000
  2       0.000000000000
  3       0.000000000000
  4      -0.000000000000
  5      -0.000000000000
  6       0.000000000000
  7      -0.000000000000
  8       0.000000000000
  9      -0.000000000000
 10      -0.000000000000
 11      -0.000000000000
 12       0.000000000000
 13      -0.000000000000
 14       0.410564782082
 15       0.000000000000
 16       0.000000000000
 17      -0.629365378094
 18      -0.000000000000
 19      -0.000000000000
 20      -0.414078519452
 21       0.000000000000
 22       0.000000000000
 23      -0.117934196550
 24      -0.000000000000
 25      -0.000000000000
 26      -0.005599083618
 27       0.000000000000
 28       0.000000000000
 29      -0.000606107571
 30       0.000000000000
 31      -0.000000000000
 32       0.000073780341
 33       0.000000000000
 34       0.000000000000
 35      -0.000000000000
 36      -0.000000000000
 37       0.000000000000
 38       0.000000000000
 39      -0.000000000000
 40       0.000000000000
 41      -0.000000000000
 42       0.000000000000
 43      -0.000000000000
 44       0.000000000000
 45      -0.000000000000
 46       0.000000000000
 47       0.000000000000
 48       0.000000000000
 49      -0.000000000000
 50      -0.000000000000
 51      -0.000000000000
 52       0.000000000000
 53      -0.000000000013
 54       0.000000000000
 55       0.000000000000
 56      -0.000000000000
 57       0.000000000000
 58      -0.000000000000
 59      -0.000000000000
 60       0.000000000005
 61       0.000000000000
 62       0.000000000000
 63       0.000000000000
 64       0.000000000000
 65       0.000000000000
 66      -0.000000000000
 67      -0.000000000000
 68       0.000000000000
 69       0.000000000000
 70      -0.000000000000
 71       0.000000000000
 72       0.000000000000
 73      -0.000000000000
 74      -0.000000000000
 75       0.000000000000
 Sym=     1a
 Ene= -8.33144889513193E+00
 Spin= Alpha
 Occup= 2.000000
  1       0.000000000000
  2      -0.000000000000
  3      -0.000000000000
  4       0.000000000000
  5      -0.000000000000
  6       0.000000000000
  7       0.000000000000
  8      -0.000000000000
  9       0.000000000000
 10      -0.000000000000
 11       0.000000000000
 12       0.410564782082
 13      -0.000000000000
 14      -0.000000000000
 15      -0.629365378094
 16      -0.000000000000
 17       0.000000000000
 18      -0.414078519452
 19       0.000000000000
 20      -0.000000000000
 21      -0.117934196550
 22      -0.000000000000
 23      -0.000000000000
 24      -0.005599083618
 25       0.000000000000
 26       0.000000000000
 27      -0.000606107571
 28      -0.000000000000
 29      -0.000000000000
 30       0.000073780341
 31      -0.000000000000
 32       0.000000000000
 33       0.000000000000
 34      -0.000000000000
 35      -0.000000000000
 36      -0.000000000000
 37       0.000000000000
 38       0.000000000000
 39       0.000000000000
 40      -0.000000000000
 41      -0.000000000000
 42       0.000000000000
 43       0.000000000000
 44      -0.000000000000
 45       0.000000000000
 46       0.000000000000
 47      -0.000000000000
 48      -0.000000000000
 49       0.000000000000
 50       0.000000000000
 51       0.000000000000
 52      -0.000000000000
 53      -0.000000000000
 54       0.000000000008
 55       0.000000000000
 56       0.000000000000
 57       0.000000000000
 58       0.000000000011
 59       0.000000000000
 60       0.000000000000
 61      -0.000000000003
 62       0.000000000000
 63      -0.000000000000
 64       0.000000000000
 65      -0.000000000004
 66      -0.000000000000
 67      -0.000000000000
 68       0.000000000000
 69      -0.000000000000
 70       0.000000000000
 71       0.000000000000
 72       0.000000000000
 73       0.000000000000
 74      -0.000000000000
 75       0.000000000000
 Sym=     1a
 Ene= -3.82517085527929E+00
 Spin= Alpha
 Occup= 2.000000
  1      -0.000000000000
  2       0.000000000000
  3      -0.000000000000
  4       0.000000000000
  5      -0.000000000000
  6      -0.000000000000
  7       0.000000000000
  8       0.000000000000
  9      -0.000000000000
 10       0.000000000000
 11      -0.000000000000
 12       0.000000000000
 13       0.000000000000
 14      -0.000000000000
 15      -0.000000000000
 16       0.000000000000
 17      -0.000000000000
 18       0.000000000000
 19      -0.000000000000
 20      -0.000000000000
 21       0.000000000000
 22       0.000000000000
 23       0.000000000000
 24       0.000000000000
 25      -0.000000000000
 26      -0.000000000000
 27       0.000000000000
 28       0.000000000000
 29       0.000000000000
 30      -0.000000000000
 31      -0.000000000000
 32      -0.000000000000
 33       0.004800253607
 34      -0.000000000000
 35       0.000000000000
 36       0.860969694253
 37      -0.000000000000
 38       0.001158698281
 39       0.000000000000
 40      -0.000000000000
 41       0.207823211183
 42      -0.000000000000
 43       0.000243718458
 44       0.000000000000
 45      -0.000000000000
 46       0.043713106663
 47      -0.000000000000
 48       0.000004369993
 49      -0.000000000000
 50       0.000000000000
 51       0.000783827527
 52       0.000000000000
 53       0.000000000000
 54       0.000000000000
 55      -0.000000000000
 56       0.000000000000
 57       0.000000000000
 58      -0.000000000000
 59      -0.000000000000
 60      -0.000000000000
 61      -0.000000000000
 62       0.000000000000
 63      -0.000000000000
 64      -0.000000000000
 65       0.000000000000
 66      -0.000000000000
 67      -0.000000000008
 68       0.000000000000
 69       0.000000000000
 70      -0.000000000032
 71       0.000000000000
 72       0.000000000000
 73      -0.000000000000
 74      -0.000000000010
 75       0.000000000000
 Sym=     1a
 Ene= -3.82517085527928E+00
 Spin= Alpha
 Occup= 2.000000
  1       0.000000000000
  2       0.000000000000
  3      -0.000000000000
  4      -0.000000000000
  5       0.000000000000
  6      -0.000000000000
  7       0.000000000000
  8      -0.000000000000
  9      -0.000000000000
 10       0.000000000000
 11      -0.000000000000
 12       0.000000000000
 13      -0.000000000000
 14      -0.000000000000
 15      -0.000000000000
 16      -0.000000000000
 17       0.000000000000
 18       0.000000000000
 19       0.000000000000
 20      -0.000000000000
 21       0.000000000000
 22      -0.000000000000
 23      -0.000000000000
 24      -0.000000000000
 25       0.000000000000
 26       0.000000000000
 27       0.000000000000
 28      -0.000000000000
 29      -0.000000000000
 30       0.000000000000
 31       0.000000000000
 32       0.000000000000
 33      -0.860969694253
 34       0.000000000000
 35      -0.000000000000
 36       0.004800253607
 37      -0.000000000000
 38      -0.207823211183
 39       0.000000000000
 40       0.000000000000
 41       0.001158698281
 42      -0.000000000000
 43      -0.043713106663
 44       0.000000000000
 45      -0.000000000000
 46       0.000243718458
 47      -0.000000000000
 48      -0.000783827527
 49      -0.000000000000
 50       0.000000000000
 51       0.000004369993
 52       0.000000000000
 53       0.000000000000
 54       0.000000000000
 55       0.000000000000
 56      -0.000000000000
 57       0.000000000000
 58      -0.000000000000
 59      -0.000000000000
 60      -0.000000000000
 61      -0.000000000000
 62      -0.000000000000
 63      -0.000000000000
 64       0.000000000000
 65      -0.000000000000
 66       0.000000000000
 67      -0.000000000020
 68      -0.000000000000
 69      -0.000000000000
 70       0.000000000012
 71       0.000000000000
 72      -0.000000000000
 73       0.000000000000
 74      -0.000000000024
 75       0.000000000000
 Sym=     1a
 Ene= -3.82517085527306E+00
 Spin= Alpha
 Occup= 2.000000
  1      -0.000000000000
  2       0.000000000000
  3      -0.000000000000
  4       0.000000000000
  5       0.000000000000
  6      -0.000000000000
  7       0.000000000000
  8      -0.000000000000
  9       0.000000000000
 10      -0.000000000000
 11       0.000000000000
 12       0.000000000000
 13       0.000000000000
 14       0.000000000000
 15       0.000000000000
 16       0.000000000000
 17       0.000000000000
 18      -0.000000000000
 19      -0.000000000000
 20      -0.000000000000
 21      -0.000000000000
 22       0.000000000000
 23       0.000000000000
 24       0.000000000000
 25      -0.000000000000
 26      -0.000000000000
 27      -0.000000000000
 28       0.000000000000
 29      -0.000000000000
 30       0.000000000000
 31      -0.000000000000
 32       0.000000000000
 33      -0.000000000000
 34       0.000000000000
 35       0.000000000000
 36      -0.000000000000
 37      -0.860983075823
 38      -0.000000000000
 39      -0.000000000000
 40      -0.000000000000
 41       0.000000000000
 42      -0.207826441265
 43       0.000000000000
 44       0.000000000000
 45       0.000000000000
 46      -0.000000000000
 47      -0.043713786076
 48      -0.000000000000
 49      -0.000000000000
 50      -0.000000000000
 51       0.000000000000
 52      -0.000783839703
 53       0.000000000000
 54       0.000000000000
 55       0.000000000000
 56       0.000000000000
 57       0.000000000000
 58      -0.000000000000
 59       0.000000000000
 60       0.000000000000
 61      -0.000000000000
 62      -0.000000000000
 63      -0.000000000000
 64      -0.000000000000
 65       0.000000000000
 66      -0.000000000000
 67      -0.000000000000
 68       0.000000000000
 69       0.000000000000
 70       0.000000000000
 71       0.000000000121
 72       0.000000000000
 73      -0.000000000000
 74      -0.000000000000
 75       0.000000000000
 Sym=     1a
 Ene= -3.82517085527300E+00
 Spin= Alpha
 Occup= 2.000000
  1       0.000000000000
  2      -0.000000000000
  3       0.000000000000
  4       0.000000000000
  5      -0.000000000000
  6      -0.000000000000
  7      -0.000000000000
  8       0.000000000000
  9      -0.000000000000
 10       0.000000000000
 11      -0.000000000000
 12       0.000000000000
 13      -0.000000000000
 14      -0.000000000000
 15      -0.000000000000
 16      -0.000000000000
 17       0.000000000000
 18       0.000000000000
 19       0.000000000000
 20       0.000000000000
 21      -0.000000000000
 22      -0.000000000000
 23      -0.000000000000
 24       0.000000000000
 25       0.000000000000
 26       0.000000000000
 27      -0.000000000000
 28      -0.000000000000
 29      -0.000000000000
 30       0.000000000000
 31       0.000000000000
 32       0.000000000000
 33      -0.000000000000
 34       0.860983075823
 35      -0.000000000000
 36      -0.000000000000
 37       0.000000000000
 38       0.000000000000
 39       0.207826441265
 40       0.000000000000
 41       0.000000000000
 42      -0.000000000000
 43      -0.000000000000
 44       0.043713786076
 45      -0.000000000000
 46      -0.000000000000
 47       0.000000000000
 48       0.000000000000
 49       0.000783839703
 50      -0.000000000000
 51      -0.000000000000
 52      -0.000000000000
 53       0.000000000000
 54       0.000000000000
 55      -0.000000000000
 56       0.000000000000
 57       0.000000000000
 58       0.000000000000
 59      -0.000000000000
 60      -0.000000000000
 61      -0.000000000000
 62      -0.000000000000
 63      -0.000000000000
 64      -0.000000000000
 65       0.000000000000
 66      -0.000000000000
 67       0.000000000000
 68       0.000000000043
 69       0.000000000000
 70       0.000000000000
 71      -0.000000000000
 72      -0.000000000113
 73      -0.000000000000
 74      -0.000000000000
 75       0.000000000000
 Sym=     1a
 Ene= -3.82517085527299E+00
 Spin= Alpha
 Occup= 2.000000
  1       0.000000000000
  2       0.000000000000
  3       0.000000000000
  4      -0.000000000000
  5       0.000000000000
  6      -0.000000000000
  7       0.000000000000
  8      -0.000000000000
  9       0.000000000000
 10      -0.000000000000
 11       0.000000000000
 12      -0.000000000000
 13       0.000000000000
 14      -0.000000000000
 15       0.000000000000
 16      -0.000000000000
 17       0.000000000000
 18      -0.000000000000
 19       0.000000000000
 20      -0.000000000000
 21       0.000000000000
 22      -0.000000000000
 23       0.000000000000
 24      -0.000000000000
 25       0.000000000000
 26      -0.000000000000
 27       0.000000000000
 28      -0.000000000000
 29      -0.000000000000
 30      -0.000000000000
 31      -0.000000000000
 32       0.000000000000
 33      -0.000000000000
 34      -0.000000000000
 35       0.860983075823
 36       0.000000000000
 37      -0.000000000000
 38       0.000000000000
 39       0.000000000000
 40       0.207826441265
 41      -0.000000000000
 42      -0.000000000000
 43      -0.000000000000
 44      -0.000000000000
 45       0.043713786076
 46       0.000000000000
 47       0.000000000000
 48       0.000000000000
 49       0.000000000000
 50       0.000783839703
 51      -0.000000000000
 52      -0.000000000000
 53       0.000000000000
 54       0.000000000000
 55       0.000000000000
 56       0.000000000000
 57      -0.000000000000
 58       0.000000000000
 59       0.000000000000
 60      -0.000000000000
 61      -0.000000000000
 62      -0.000000000000
 63      -0.000000000000
 64       0.000000000000
 65      -0.000000000000
 66      -0.000000000000
 67       0.000000000000
 68      -0.000000000000
 69       0.000000000043
 70      -0.000000000000