
                                 *****************
                                 * O   R   C   A *
                                 *****************

           --- An Ab Initio, DFT and Semiempirical electronic structure package ---

                  #######################################################
                  #                        -***-                        #
                  #  Department of molecular theory and spectroscopy    #
                  #              Directorship: Frank Neese              #
                  # Max Planck Institute for Chemical Energy Conversion #
                  #                  D-45470 Muelheim/Ruhr              #
                  #                       Germany                       #
                  #                                                     #
                  #                  All rights reserved                #
                  #                        -***-                        #
                  #######################################################


                         Program Version 4.0.1.2 - RELEASE -


 With contributions from (in alphabetic order):
   Daniel Aravena         : Magnetic Properties
   Michael Atanasov       : Ab Initio Ligand Field Theory
   Ute Becker             : Parallelization
   Martin Brehm           : Molecular dynamics
   Dmytro Bykov           : SCF Hessian
   Vijay G. Chilkuri      : MRCI spin determinant printing
   Dipayan Datta          : RHF DLPNO-CCSD density
   Achintya Kumar Dutta   : EOM-CC, STEOM-CC
   Dmitry Ganyushin       : Spin-Orbit,Spin-Spin,Magnetic field MRCI
   Yang Guo               : DLPNO-NEVPT2, CIM, IAO-localization
   Andreas Hansen         : Spin unrestricted coupled pair/coupled cluster methods
   Lee Huntington         : MR-EOM, pCC
   Robert Izsak           : Overlap fitted RIJCOSX, COSX-SCS-MP3, EOM
   Christian Kollmar      : KDIIS, OOCD, Brueckner-CCSD(T), CCSD density
   Simone Kossmann        : Meta GGA functionals, TD-DFT gradient, OOMP2, MP2 Hessian
   Martin Krupicka        : AUTO-CI
   Dagmar Lenk            : GEPOL surface
   Dimitrios Liakos       : Extrapolation schemes; parallel MDCI
   Dimitrios Manganas     : ROCIS; embedding schemes
   Dimitrios Pantazis     : SARC Basis sets
   Taras Petrenko         : DFT Hessian,TD-DFT gradient, ASA, ECA, R-Raman, ABS, FL, XAS/XES, NRVS
   Peter Pinski           : DLPNO-MP2
   Christoph Reimann      : Effective Core Potentials
   Marius Retegan         : Local ZFS, SOC
   Christoph Riplinger    : Optimizer, TS searches, QM/MM, DLPNO-CCSD(T), (RO)-DLPNO pert. Triples
   Tobias Risthaus        : Range-separated hybrids, TD-DFT gradient, RPA, STAB
   Michael Roemelt        : Restricted open shell CIS
   Masaaki Saitow         : Open-shell DLPNO
   Barbara Sandhoefer     : DKH picture change effects
   Kantharuban Sivalingam : CASSCF convergence, NEVPT2, FIC-MRCI
   Georgi Stoychev        : AutoAux
   Boris Wezisla          : Elementary symmetry handling
   Frank Wennmohs         : Technical directorship


 We gratefully acknowledge several colleagues who have allowed us to
 interface, adapt or use parts of their codes:
   Stefan Grimme, W. Hujo, H. Kruse,             : VdW corrections, initial TS optimization,
                  C. Bannwarth                     DFT functionals, gCP, sTDA/sTD-DF
   Ed Valeev                                     : LibInt (2-el integral package), F12 methods
   Garnet Chan, S. Sharma, J. Yang, R. Olivares  : DMRG
   Ulf Ekstrom                                   : XCFun DFT Library
   Mihaly Kallay                                 : mrcc  (arbitrary order and MRCC methods)
   Andreas Klamt, Michael Diedenhofen            : otool_cosmo (COSMO solvation model)
   Jiri Pittner, Ondrej Demel                    : Mk-CCSD
   Frank Weinhold                                : gennbo (NPA and NBO analysis)
   Christopher J. Cramer and Donald G. Truhlar   : smd solvation model


 Your calculation uses the libint2 library for the computation of 2-el integrals
 For citations please refer to: http://libint.valeyev.net

 This ORCA versions uses:
   CBLAS   interface :  Fast vector & matrix operations
   LAPACKE interface :  Fast linear algebra routines
   SCALAPACK package :  Parallel linear algebra routines




*****************************************
The coordinations will be read from file: ../../../../chem_database/Kr.xyz
*****************************************


Your calculation utilizes the basis: def2-QZVP
   F. Weigend and R. Ahlrichs, Phys. Chem. Chem. Phys. 7, 3297 (2005).

================================================================================
                                        WARNINGS
                       Please study these warnings very carefully!
================================================================================

Warning: TCutStore was < 0. Adjusted to Thresh (uncritical)

INFO   : the flag for use of LIBINT has been found!

================================================================================
                                       INPUT FILE
================================================================================
NAME = mol.inp
|  1> # ================================================================
|  2> # Orca input file
|  3> # ================================================================
|  4> ! HF def2-QZVP VeryTightSCF UseSym
|  5> 
|  6> ! PAL4
|  7> 
|  8> %scf
|  9>   STABPerform true
| 10> #  STABRestartUHFifUnstable true
| 11> end
| 12> 
| 13> 
| 14> 
| 15> * xyzfile 0 1 ../../../../chem_database/Kr.xyz
| 16> 
| 17>                          ****END OF INPUT****
================================================================================

------------------------------------------------------------------------------
                            SYMMETRY HANDLING SETUP
------------------------------------------------------------------------------

------------------
SYMMETRY DETECTION
------------------
Preparing Data                    ... done
Detection Threshold:    SymThresh ... 1.0000e-04

Point Group will now be determined:
Moving molecule to center of mass ... done

POINT GROUP                       ... Kh

The coordinates will now be cleaned:
Structure cleanup requested       ... yes
Selected point group              ... Kh
Cleaning Tolerance      SymThresh ... 1.0000e-04

Cleaning coordinates              ... done

-----------------------------------------------
SYMMETRY-PERFECTED CARTESIAN COORDINATES (A.U.)
-----------------------------------------------
Warning (ORCA_SYM): Coordinates were not cleaned so far!

------------------
SYMMETRY REDUCTION
------------------
ORCA supports only abelian point groups.
It is now checked, if the determined point group is supported:
Point Group ( Kh    ) is          ... NOT supported
Reducing to abelian subgroup      ... D2h

(Re)building abelian point group:
Creating Character Table          ... done
Making direct product table       ... done
Constructing symmetry operations  ... done
Creating atom transfer table      ... done
Creating asymmetric unit          ... done

----------------------
ASYMMETRIC UNIT IN D2h
----------------------
  #  AT     MASS              COORDS (A.U.)             BAS
   0 Kr  83.8000   0.00000000   0.00000000   0.00000000   0

----------------------
SYMMETRY ADAPTED BASIS
----------------------
The coefficients for the symmetry adapted linear combinations (SALCS)
of basis functions will now be computed:
Number of basis functions         ...    75
Preparing memory                  ... done
Constructing Gamma(red)           ... done
Reducing Gamma(red)               ... done
Constructing SALCs                ... done
Checking SALC integrity           ... nothing suspicious
Normalizing SALCs                 ... done

Storing the symmetry object:
Symmetry file                     ... mol.sym.tmp
Writing symmetry information      ... done

                       ****************************
                       * Single Point Calculation *
                       ****************************

---------------------------------
CARTESIAN COORDINATES (ANGSTROEM)
---------------------------------
  Kr     0.000000    0.000000    0.000000

----------------------------
CARTESIAN COORDINATES (A.U.)
----------------------------
  NO LB      ZA    FRAG     MASS         X           Y           Z
   0 Kr   36.0000    0    83.800    0.000000    0.000000    0.000000

--------------------------------
INTERNAL COORDINATES (ANGSTROEM)
--------------------------------
 Kr     0   0   0     0.000000000000     0.00000000     0.00000000

---------------------------
INTERNAL COORDINATES (A.U.)
---------------------------
 Kr     0   0   0     0.000000000000     0.00000000     0.00000000

---------------------
BASIS SET INFORMATION
---------------------
There are 1 groups of distinct atoms

 Group   1 Type Kr  : 24s20p10d2f1g contracted to 11s7p4d2f1g pattern {114111111111/10511111/7111/11/1}

Atom   0Kr   basis set group =>   1


           ************************************************************
           *        Program running with 4 parallel MPI-processes     *
           *              working on a common directory               *
           ************************************************************
------------------------------------------------------------------------------
                           ORCA GTO INTEGRAL CALCULATION
------------------------------------------------------------------------------

                         BASIS SET STATISTICS AND STARTUP INFO

 # of primitive gaussian shells          ...   57
 # of primitive gaussian functions       ...  157
 # of contracted shells                  ...   25
 # of contracted basis functions         ...   75
 Highest angular momentum                ...    4
 Maximum contraction depth               ...   11
 Integral package used                   ... LIBINT
 Integral threshhold            Thresh   ...  1.000e-12
 Primitive cut-off              TCut     ...  1.000e-14


------------------------------ INTEGRAL EVALUATION ----------------------------


 * One electron integrals 
 Pre-screening matrix                    ... done
 Shell pair data                         ... done (   0.000 sec)



           ************************************************************
           *        Program running with 4 parallel MPI-processes     *
           *              working on a common directory               *
           ************************************************************
-------------------------------------------------------------------------------
                                 ORCA SCF
-------------------------------------------------------------------------------

------------
SCF SETTINGS
------------
Hamiltonian:
 Ab initio Hamiltonian  Method          .... Hartree-Fock(GTOs)


General Settings:
 Integral files         IntName         .... mol
 Hartree-Fock type      HFTyp           .... RHF
 Total Charge           Charge          ....    0
 Multiplicity           Mult            ....    1
 Number of Electrons    NEL             ....   36
 Basis Dimension        Dim             ....   75
 Nuclear Repulsion      ENuc            ....      0.0000000000 Eh

 Symmetry handling      UseSym         .... ON
 Point group                           .... D2h
 Used point group                      .... D2h
 Number of irreps                      .... 8
   Irrep   Ag has   22 symmetry adapted basis functions (ofs=   0)
   Irrep  B1g has    6 symmetry adapted basis functions (ofs=  22)
   Irrep  B2g has    6 symmetry adapted basis functions (ofs=  28)
   Irrep  B3g has    6 symmetry adapted basis functions (ofs=  34)
   Irrep   Au has    2 symmetry adapted basis functions (ofs=  40)
   Irrep  B1u has   11 symmetry adapted basis functions (ofs=  42)
   Irrep  B2u has   11 symmetry adapted basis functions (ofs=  53)
   Irrep  B3u has   11 symmetry adapted basis functions (ofs=  64)

Convergence Acceleration:
 DIIS                   CNVDIIS         .... on
   Start iteration      DIISMaxIt       ....    12
   Startup error        DIISStart       ....  0.200000
   # of expansion vecs  DIISMaxEq       ....     5
   Bias factor          DIISBfac        ....   1.050
   Max. coefficient     DIISMaxC        ....  10.000
 Newton-Raphson         CNVNR           .... off
 SOSCF                  CNVSOSCF        .... on
   Start iteration      SOSCFMaxIt      ....   150
   Startup grad/error   SOSCFStart      ....  0.003300
 Level Shifting         CNVShift        .... on
   Level shift para.    LevelShift      ....    0.2500
   Turn off err/grad.   ShiftErr        ....    0.0010
 Zerner damping         CNVZerner       .... off
 Static damping         CNVDamp         .... on
   Fraction old density DampFac         ....    0.7000
   Max. Damping (<1)    DampMax         ....    0.9800
   Min. Damping (>=0)   DampMin         ....    0.0000
   Turn off err/grad.   DampErr         ....    0.1000
 Fernandez-Rico         CNVRico         .... off

SCF Procedure:
 Maximum # iterations   MaxIter         ....   125
 SCF integral mode      SCFMode         .... Direct
   Integral package                     .... LIBINT
 Reset frequeny         DirectResetFreq ....    20
 Integral Threshold     Thresh          ....  1.000e-12 Eh
 Primitive CutOff       TCut            ....  1.000e-14 Eh

Convergence Tolerance:
 Convergence Check Mode ConvCheckMode   .... Total+1el-Energy
 Convergence forced     ConvForced      .... 0
 Energy Change          TolE            ....  1.000e-09 Eh
 1-El. energy change                    ....  1.000e-06 Eh
 Orbital Gradient       TolG            ....  2.000e-06
 Orbital Rotation angle TolX            ....  2.000e-06
 DIIS Error             TolErr          ....  1.000e-08


Diagonalization of the overlap matrix:
Smallest eigenvalue                        ... 6.997e-04
Time for diagonalization                   ...    0.010 sec
Threshold for overlap eigenvalues          ... 1.000e-08
Number of eigenvalues below threshold      ... 0
Time for construction of square roots      ...    0.001 sec
Producing symmetrization matrix            ... done (   0.001 sec)
Total time needed                          ...    0.012 sec

-------------------
DFT GRID GENERATION
-------------------

General Integration Accuracy     IntAcc      ...  4.340
Radial Grid Type                 RadialGrid  ... Gauss-Chebyshev
Angular Grid (max. acc.)         AngularGrid ... Lebedev-110
Angular grid pruning method      GridPruning ... 3 (G Style)
Weight generation scheme         WeightScheme... Becke
Basis function cutoff            BFCut       ...    1.0000e-12
Integration weight cutoff        WCut        ...    1.0000e-14
Grids for H and He will be reduced by one unit

# of grid points (after initial pruning)     ...   2950 (   0.0 sec)
# of grid points (after weights+screening)   ...   2950 (   0.0 sec)
Grid point division into batches done        ...    0.0 sec
Reduced shell lists constructed in    0.0 sec

Total number of grid points                  ...     2950
Total number of batches                      ...       47
Average number of points per batch           ...       62
Average number of grid points per atom       ...     2950
Average number of shells per batch           ...    12.00 (48.00%)
Average number of basis functions per batch  ...    47.08 (62.77%)
Average number of large shells per batch     ...    10.15 (84.62%)
Average number of large basis fcns per batch ...    40.62 (86.27%)
Maximum spatial batch extension              ...  27.90, 27.90, 22.78 au
Average spatial batch extension              ...   3.63,  4.04,  4.59 au

Time for grid setup =    0.042 sec

------------------------------
INITIAL GUESS: MODEL POTENTIAL
------------------------------
Loading Hartree-Fock densities                     ... done
Calculating cut-offs                               ... done
Setting up the integral package                    ... done
Initializing the effective Hamiltonian             ... done
Starting the Coulomb interaction                   ... done (   0.0 sec)
Reading the grid                                   ... done
Mapping shells                                     ... done
Starting the XC term evaluation                    ... done (   0.0 sec)
done (   0.0 sec)
Diagonalizing the Hamiltonian                      ... done (   0.0 sec)
Back transforming the eigenvectors                 ... done (   0.0 sec)
Now organizing SCF variables                       ... done
The symmetry of the initial guess is 1-Ag
Irrep occupations for operator 0
    Ag -    6
   B1g -    1
   B2g -    1
   B3g -    1
    Au -    0
   B1u -    3
   B2u -    3
   B3u -    3
                      ------------------
                      INITIAL GUESS DONE (   0.2 sec)
                      ------------------
--------------
SCF ITERATIONS
--------------
ITER       Energy         Delta-E        Max-DP      RMS-DP      [F,P]     Damp
               ***  Starting incremental Fock matrix formation  ***
  0  -2752.0193538716   0.000000000000 0.01674360  0.00071997  1.0372708 0.7000
  1  -2752.0299231657  -0.010569294157 0.01125091  0.00054712  0.7254862 0.7000
  2  -2752.0371487576  -0.007225591852 0.00873013  0.00040599  0.5076226 0.7000
  3  -2752.0422046654  -0.005055907817 0.00663024  0.00030268  0.3553586 0.7000
                      *** Initiating the SOSCF procedure ***
                      *** Re-Reading the Fockian *** 
                      *** Removing any level shift *** 
ITER      Energy       Delta-E        Grad      Rot      Max-DP    RMS-DP
  4  -2752.04577128  -0.0035666118  0.002372  0.002372  0.016645  0.000754
               *** Restarting incremental Fock matrix formation ***
  5  -2752.05425329  -0.0084820105  0.004873  0.001231  0.003507  0.000165
  6  -2752.05429128  -0.0000379955  0.001240  0.000426  0.000787  0.000042
  7  -2752.05429565  -0.0000043665  0.000206  0.000060  0.000177  0.000008
  8  -2752.05429577  -0.0000001226  0.000017  0.000011  0.000029  0.000001
  9  -2752.05429577  -0.0000000011  0.000002  0.000002  0.000005  0.000000
                 **** Energy Check signals convergence ****
              ***Rediagonalizing the Fockian in SOSCF/NRSCF***

               *****************************************************
               *                     SUCCESS                       *
               *           SCF CONVERGED AFTER  10 CYCLES          *
               *****************************************************


------------------------------------------------------------------------------
                          SCF STABILITY ANALYSIS                              
------------------------------------------------------------------------------


                       ****Iteration    0****

   Memory handling for direct AO based CIS:
   Memory per vector needed      ...     1 MB
   Memory needed                 ...     0 MB
   Memory available              ...  1024 MB
   Number of vectors per batch   ...  1024
   Number of batches             ...     1
   Time for densities:     0.001
   Using LibInt in JK Direct
   Time for K (Direct):     0.210
   Time for Sigma-Completion:     0.001
   Lowest Energy          :     0.501887573161
   Maximum Energy change  :     0.528931599893 (vector 2)
   Maximum residual norm  :     0.023471534952

                       ****Iteration    1****
   Time for densities:     0.000
   Using LibInt in JK Direct
   Time for K (Direct):     0.336
   Time for Sigma-Completion:     0.000
   Lowest Energy          :     0.468756548985
   Maximum Energy change  :     0.033131024176 (vector 0)
   Maximum residual norm  :     0.003000402729

                       ****Iteration    2****
   Time for densities:     0.000
   Using LibInt in JK Direct
   Time for K (Direct):     0.340
   Time for Sigma-Completion:     0.000
   Lowest Energy          :     0.461015562152
   Maximum Energy change  :     0.007740986834 (vector 0)
   Maximum residual norm  :     0.005645077245

                       ****Iteration    3****
   Time for densities:     0.000
   Using LibInt in JK Direct
   Time for K (Direct):     0.344
   Time for Sigma-Completion:     0.000
   Lowest Energy          :     0.455143082620
   Maximum Energy change  :     0.005872479532 (vector 0)
   Maximum residual norm  :     0.000777469927

                       ****Iteration    4****
   Time for densities:     0.000
   Using LibInt in JK Direct
   Time for K (Direct):     0.341
   Time for Sigma-Completion:     0.000
   Lowest Energy          :     0.454927491309
   Maximum Energy change  :     0.000215591311 (vector 0)
   Maximum residual norm  :     0.000043910024

      *** CONVERGENCE OF RESIDUAL NORM REACHED ***

----------------------------- 
SCF STABILITY ANALYSIS RESULT 
----------------------------- 

RHF/RKS->UHF/UKS - triplet - external

   Root    Eigenvalue (au) 
     0       0.454927 
     1       0.509628 
     2       0.509628 

Stability Analysis indicates a stable HF/KS wave function.


Total time for performing the stability analysis:     1.582sec


----------------
TOTAL SCF ENERGY
----------------

Total Energy       :        -2752.05429577 Eh          -74887.20458 eV

Components:
Nuclear Repulsion  :            0.00000000 Eh               0.00000 eV
Electronic Energy  :        -2752.05429577 Eh          -74887.20458 eV
One Electron Energy:        -3830.51737283 Eh         -104233.67685 eV
Two Electron Energy:         1078.46307705 Eh           29346.47227 eV

Virial components:
Potential Energy   :        -5504.10147333 Eh         -149774.21546 eV
Kinetic Energy     :         2752.04717755 Eh           74887.01088 eV
Virial Ratio       :            2.00000259


---------------
SCF CONVERGENCE
---------------

  Last Energy change         ...   -5.9117e-12  Tolerance :   1.0000e-09
  Last MAX-Density change    ...    8.0364e-07  Tolerance :   1.0000e-08
  Last RMS-Density change    ...    1.4073e-08  Tolerance :   1.0000e-09
  Last Orbital Gradient      ...    1.9000e-07  Tolerance :   2.0000e-06
  Last Orbital Rotation      ...    7.5575e-08  Tolerance :   2.0000e-06

             **** THE GBW FILE WAS UPDATED (mol.gbw) ****
             **** DENSITY FILE WAS UPDATED (mol.scfp.tmp) ****
             **** ENERGY FILE WAS UPDATED (mol.en.tmp) ****
----------------
ORBITAL ENERGIES
----------------

  NO   OCC          E(Eh)            E(eV)    Irrep 
   0   2.0000    -520.166124    -14154.4398    1-Ag
   1   2.0000     -69.903584     -1902.1732    2-Ag
   2   2.0000     -63.010367     -1714.5993    1-B2u
   3   2.0000     -63.010367     -1714.5993    1-B1u
   4   2.0000     -63.010367     -1714.5993    1-B3u
   5   2.0000     -10.849386      -295.2268    3-Ag
   6   2.0000      -8.331449      -226.7103    2-B2u
   7   2.0000      -8.331449      -226.7103    2-B1u
   8   2.0000      -8.331449      -226.7103    2-B3u
   9   2.0000      -3.825171      -104.0882    4-Ag
  10   2.0000      -3.825171      -104.0882    5-Ag
  11   2.0000      -3.825171      -104.0882    1-B1g
  12   2.0000      -3.825171      -104.0882    1-B2g
  13   2.0000      -3.825171      -104.0882    1-B3g
  14   2.0000      -1.152862       -31.3710    6-Ag
  15   2.0000      -0.524117       -14.2620    3-B1u
  16   2.0000      -0.524117       -14.2620    3-B3u
  17   2.0000      -0.524117       -14.2620    3-B2u
  18   0.0000       0.298341         8.1183    4-B1u
  19   0.0000       0.298341         8.1183    4-B2u
  20   0.0000       0.298341         8.1183    4-B3u
  21   0.0000       0.372332        10.1317    7-Ag
  22   0.0000       0.510864        13.9013    8-Ag
  23   0.0000       0.510864        13.9013    9-Ag
  24   0.0000       0.510864        13.9013    2-B1g
  25   0.0000       0.510864        13.9013    2-B2g
  26   0.0000       0.510864        13.9013    2-B3g
  27   0.0000       1.394764        37.9535    5-B2u
  28   0.0000       1.394764        37.9535    5-B1u
  29   0.0000       1.394764        37.9535    5-B3u
  30   0.0000       1.395055        37.9614    1-Au
  31   0.0000       1.395055        37.9614    6-B1u
  32   0.0000       1.395055        37.9614    6-B3u
  33   0.0000       1.395055        37.9614    6-B2u
  34   0.0000       1.395055        37.9614    7-B3u
  35   0.0000       1.395055        37.9614    7-B2u
  36   0.0000       1.395055        37.9614    7-B1u
  37   0.0000       1.870617        50.9021   10-Ag
  38   0.0000       1.870617        50.9021   11-Ag
  39   0.0000       1.870617        50.9021    3-B1g
  40   0.0000       1.870617        50.9021    3-B2g
  41   0.0000       1.870617        50.9021    3-B3g
  42   0.0000       2.142106        58.2897   12-Ag
  43   0.0000       3.348157        91.1080    4-B3g
  44   0.0000       3.348157        91.1080    4-B1g
  45   0.0000       3.348157        91.1080    4-B2g
  46   0.0000       3.348157        91.1080   13-Ag
  47   0.0000       3.348157        91.1080   14-Ag
  48   0.0000       3.348157        91.1080    5-B1g
  49   0.0000       3.348157        91.1080    5-B2g
  50   0.0000       3.348157        91.1080    5-B3g
  51   0.0000       3.348157        91.1080   15-Ag
  52   0.0000       3.461807        94.2006    8-B3u
  53   0.0000       3.461807        94.2006    8-B1u
  54   0.0000       3.461807        94.2006    8-B2u
  55   0.0000       3.461807        94.2006    2-Au
  56   0.0000       3.461807        94.2006    9-B3u
  57   0.0000       3.461807        94.2006    9-B2u
  58   0.0000       3.461807        94.2006    9-B1u
  59   0.0000       4.771143       129.8294   10-B3u
  60   0.0000       4.771143       129.8294   10-B2u
  61   0.0000       4.771143       129.8294   10-B1u
  62   0.0000       6.064759       165.0305    6-B1g
  63   0.0000       6.064759       165.0305    6-B2g
  64   0.0000       6.064759       165.0305    6-B3g
  65   0.0000       6.064759       165.0305   16-Ag
  66   0.0000       6.064759       165.0305   17-Ag
  67   0.0000       9.041690       246.0369   18-Ag
  68   0.0000      15.968908       434.5361   11-B3u
  69   0.0000      15.968908       434.5361   11-B1u
  70   0.0000      15.968908       434.5361   11-B2u
  71   0.0000      32.832954       893.4301   19-Ag
  72   0.0000     105.298709      2865.3235   20-Ag
  73   0.0000     355.691073      9678.8462   21-Ag
  74   0.0000    1986.799855     54063.5726   22-Ag

                    ********************************
                    * MULLIKEN POPULATION ANALYSIS *
                    ********************************

-----------------------
MULLIKEN ATOMIC CHARGES
-----------------------
   0 Kr:    0.000000
Sum of atomic charges:    0.0000000

--------------------------------
MULLIKEN REDUCED ORBITAL CHARGES
--------------------------------
  0 Krs       :     8.000000  s :     8.000000
      pz      :     6.000000  p :    18.000000
      px      :     6.000000
      py      :     6.000000
      dz2     :     2.000000  d :    10.000000
      dxz     :     2.000000
      dyz     :     2.000000
      dx2y2   :     2.000000
      dxy     :     2.000000
      f0      :     0.000000  f :     0.000000
      f+1     :     0.000000
      f-1     :     0.000000
      f+2     :     0.000000
      f-2     :     0.000000
      f+3     :     0.000000
      f-3     :     0.000000
      g0      :     0.000000  g :     0.000000
      g+1     :     0.000000
      g-1     :     0.000000
      g+2     :     0.000000
      g-2     :     0.000000
      g+3     :     0.000000
      g-3     :     0.000000
      g+4     :     0.000000
      g-4     :     0.000000


                     *******************************
                     * LOEWDIN POPULATION ANALYSIS *
                     *******************************

----------------------
LOEWDIN ATOMIC CHARGES
----------------------
   0 Kr:    0.000000

-------------------------------
LOEWDIN REDUCED ORBITAL CHARGES
-------------------------------
  0 Krs       :     8.000000  s :     8.000000
      pz      :     6.000000  p :    18.000000
      px      :     6.000000
      py      :     6.000000
      dz2     :     2.000000  d :    10.000000
      dxz     :     2.000000
      dyz     :     2.000000
      dx2y2   :     2.000000
      dxy     :     2.000000
      f0      :     0.000000  f :     0.000000
      f+1     :     0.000000
      f-1     :     0.000000
      f+2     :     0.000000
      f-2     :     0.000000
      f+3     :     0.000000
      f-3     :     0.000000
      g0      :     0.000000  g :     0.000000
      g+1     :     0.000000
      g-1     :     0.000000
      g+2     :     0.000000
      g-2     :     0.000000
      g+3     :     0.000000
      g-3     :     0.000000
      g+4     :     0.000000
      g-4     :     0.000000


                      *****************************
                      * MAYER POPULATION ANALYSIS *
                      *****************************

  NA   - Mulliken gross atomic population
  ZA   - Total nuclear charge
  QA   - Mulliken gross atomic charge
  VA   - Mayer's total valence
  BVA  - Mayer's bonded valence
  FA   - Mayer's free valence

  ATOM       NA         ZA         QA         VA         BVA        FA
  0 Kr    36.0000    36.0000     0.0000    -0.0000     0.0000    -0.0000

  Mayer bond orders larger than 0.1


--------------------------
ATOM BASIS FOR ELEMENT Kr
--------------------------
 NewGTO Kr
 S 24
    1   11713823.007999999449         0.000005639374
    2    1755253.397899999982         0.000043808789
    3     399717.419240000017         0.000230146722
    4     113285.792600000001         0.000970746563
    5      36977.205292999999         0.003521153567
    6      13355.036580000000         0.011363437058
    7       5210.901298800000         0.032936603207
    8       2162.113702000000         0.084835072191
    9        943.292910230000         0.185370957312
   10        429.207243310000         0.312085623405
   11        202.407208400000         0.330996567168
   12       3260.498552100000         0.000046603684
   13       1011.106971600000         0.000472086750
   14        392.443592730000         0.002258084032
   15        173.217021320000         0.005112864085
   16         96.619988467000         0.164045410200
   17         38.158284867000         0.016836591936
   18         18.959517570000        -0.003421959318
   19          9.250599619900         0.001650707649
   20          4.348651762100        -0.000863495109
   21          2.038032420900         0.000348039065
   22          0.691101525400        -0.000155837010
   23          0.335060651400         0.000091858307
   24          0.140744411200        -0.000022748807
 S 24
    1   11713823.007999999449         0.000001790117
    2    1755253.397899999982         0.000013906306
    3     399717.419240000017         0.000073055905
    4     113285.792600000001         0.000308145899
    5      36977.205292999999         0.001117726368
    6      13355.036580000000         0.003607117097
    7       5210.901298800000         0.010455127612
    8       2162.113702000000         0.026929355773
    9        943.292910230000         0.058842649985
   10        429.207243310000         0.099065923647
   11        202.407208400000         0.105068859926
   12       3260.498552100000         0.001006707333
   13       1011.106971600000         0.010197760283
   14        392.443592730000         0.048777898646
   15        173.217021320000         0.110445299028
   16         96.619988467000         0.064452893805
   17         38.158284867000        -0.407285229492
   18         18.959517570000        -0.567302804323
   19          9.250599619900        -0.181871026292
   20          4.348651762100        -0.008142071560
   21          2.038032420900        -0.001778121662
   22          0.691101525400         0.000427405769
   23          0.335060651400        -0.000181135403
   24          0.140744411200         0.000061836723
 S 24
    1   11713823.007999999449        -0.000000716186
    2    1755253.397899999982        -0.000005563603
    3     399717.419240000017        -0.000029228038
    4     113285.792600000001        -0.000123282301
    5      36977.205292999999        -0.000447177389
    6      13355.036580000000        -0.001443127094
    7       5210.901298800000        -0.004182863357
    8       2162.113702000000        -0.010773834589
    9        943.292910230000        -0.023541631782
   10        429.207243310000        -0.039634066400
   11        202.407208400000        -0.042035707310
   12       3260.498552100000        -0.000476959719
   13       1011.106971600000        -0.004831514302
   14        392.443592730000        -0.023110085782
   15        173.217021320000        -0.052326984261
   16         96.619988467000        -0.030945370824
   17         38.158284867000         0.252108042429
   18         18.959517570000         0.512522196329
   19          9.250599619900         0.092682190821
   20          4.348651762100        -0.693775534941
   21          2.038032420900        -0.556420838426
   22          0.691101525400        -0.044592576337
   23          0.335060651400         0.008460754705
   24          0.140744411200        -0.002066134752
 S 24
    1   11713823.007999999449        -0.000000228054
    2    1755253.397899999982        -0.000001771610
    3     399717.419240000017        -0.000009307042
    4     113285.792600000001        -0.000039256605
    5      36977.205292999999        -0.000142394049
    6      13355.036580000000        -0.000459532874
    7       5210.901298800000        -0.001331943130
    8       2162.113702000000        -0.003430696569
    9        943.292910230000        -0.007496327766
   10        429.207243310000        -0.012620618451
   11        202.407208400000        -0.013385369493
   12       3260.498552100000        -0.000155521095
   13       1011.106971600000        -0.001575400116
   14        392.443592730000        -0.007535449455
   15        173.217021320000        -0.017062132471
   16         96.619988467000        -0.010286320010
   17         38.158284867000         0.086615878774
   18         18.959517570000         0.184409473769
   19          9.250599619900         0.035288799743
   20          4.348651762100        -0.339147562125
   21          2.038032420900        -0.479786153984
   22          0.691101525400         0.294526268096
   23          0.335060651400         0.704066490017
   24          0.140744411200         0.275210548242
 P 20
    1      28609.335767000000         0.000060517435
    2       6773.123636400000         0.000537783235
    3       2199.801107900000         0.003093077506
    4        841.502015900000         0.013512316748
    5        356.921102880000         0.047083112227
    6        162.711743510000         0.129584508454
    7         78.004264994000         0.266034947321
    8         38.682579997000         0.367704042334
    9         19.589158685000         0.274028442102
   10          9.799086341700         0.078761684911
   11        261.377868690000        -0.000006587747
   12        100.099321460000        -0.000048351029
   13         44.012139363000        -0.000140180106
   14         10.854010739000         0.001012943987
   15          5.435193018200         0.002306135037
   16          2.706280554200         0.004338154597
   17          1.319563340800        -0.001817793760
   18          0.580044559700         0.000901468250
   19          0.243299762600        -0.000384307928
   20          0.096823725100         0.000109958704
 P 20
    1      28609.335767000000         0.000024904607
    2       6773.123636400000         0.000221312755
    3       2199.801107900000         0.001272887401
    4        841.502015900000         0.005560694070
    5        356.921102880000         0.019376009892
    6        162.711743510000         0.053327628503
    7         78.004264994000         0.109480778288
    8         38.682579997000         0.151320437934
    9         19.589158685000         0.112770323660
   10          9.799086341700         0.032412623417
   11        261.377868690000         0.001311485732
   12        100.099321460000         0.009625700600
   13         44.012139363000         0.027906991221
   14         10.854010739000        -0.201656424711
   15          5.435193018200        -0.459104306068
   16          2.706280554200        -0.414078519452
   17          1.319563340800        -0.117934196550
   18          0.580044559700        -0.005599083618
   19          0.243299762600        -0.000606107571
   20          0.096823725100         0.000073780341
 P 20
    1      28609.335767000000         0.000006692100
    2       6773.123636400000         0.000059468803
    3       2199.801107900000         0.000342036726
    4        841.502015900000         0.001494210401
    5        356.921102880000         0.005206514715
    6        162.711743510000         0.014329631542
    7         78.004264994000         0.029418507027
    8         38.682579997000         0.040661214108
    9         19.589158685000         0.030302438573
   10          9.799086341700         0.008709574454
   11        261.377868690000         0.000451687553
   12        100.099321460000         0.003315178384
   13         44.012139363000         0.009611420290
   14         10.854010739000        -0.069452297340
   15          5.435193018200        -0.158119677172
   16          2.706280554200        -0.180432242295
   17          1.319563340800         0.057655836094
   18          0.580044559700         0.432803985086
   19          0.243299762600         0.494181338750
   20          0.096823725100         0.187768900375
 P 20
    1      28609.335767000000         0.000003162932
    2       6773.123636400000         0.000028107140
    3       2199.801107900000         0.000161659117
    4        841.502015900000         0.000706218704
    5        356.921102880000         0.002460790044
    6        162.711743510000         0.006772710068
    7         78.004264994000         0.013904266703
    8         38.682579997000         0.019217982915
    9         19.589158685000         0.014322045211
   10          9.799086341700         0.004116464713
   11        261.377868690000         0.000190244762
   12        100.099321460000         0.001396308841
   13         44.012139363000         0.004048201807
   14         10.854010739000        -0.029252379676
   15          5.435193018200        -0.066597895362
   16          2.706280554200        -0.165390305554
   17          1.319563340800         0.237157772571
   18          0.580044559700        -0.219535215784
   19          0.243299762600         1.342820706215
   20          0.096823725100        -1.624244502129
 S 24
    1   11713823.007999999449        -0.000000126187
    2    1755253.397899999982        -0.000000980269
    3     399717.419240000017        -0.000005149782
    4     113285.792600000001        -0.000021721505
    5      36977.205292999999        -0.000078789621
    6      13355.036580000000        -0.000254269201
    7       5210.901298800000        -0.000736992138
    8       2162.113702000000        -0.001898276541
    9        943.292910230000        -0.004147875761
   10        429.207243310000        -0.006983253533
   11        202.407208400000        -0.007406406364
   12       3260.498552100000        -0.000075993666
   13       1011.106971600000        -0.000769801869
   14        392.443592730000        -0.003682114159
   15        173.217021320000        -0.008337222607
   16         96.619988467000        -0.010449135675
   17         38.158284867000         0.069217348448
   18         18.959517570000         0.037812549806
   19          9.250599619900         0.158454349605
   20          4.348651762100        -0.465922608490
   21          2.038032420900         0.147459769748
   22          0.691101525400        -1.055161290443
   23          0.335060651400         3.283350308411
   24          0.140744411200        -2.537103538779
 D 20
    1        665.350573860000        -0.000032594150
    2        200.179953660000        -0.000298622645
    3         77.545085570000        -0.001530519509
    4         33.677854345000        -0.005148181203
    5         15.624928334000        -0.011938074857
    6          7.442786742300        -0.018455272532
    7          3.533607353500        -0.019221843949
    8        665.350573860000         0.000114555928
    9        200.179953660000         0.001049543973
   10         77.545085570000         0.005379188590
   11         33.677854345000         0.018093880813
   12         15.624928334000         0.041957750728
   13          7.442786742300         0.064863198949
   14          3.533607353500         0.067557403235
   15          1.636372514200         0.018127765782
   16          1.636372514200        -0.063712138436
   17          0.678456847300        -0.011073278517
   18          0.678456847300         0.038918323544
   19          0.270000000000         0.275719988100
   20          0.270000000000        -0.969049923884
 end
-------------------------------------------
RADIAL EXPECTATION VALUES <R**-3> TO <R**3>
-------------------------------------------
   0 :     0.000000  2531.573030    35.498135     0.042441     0.002412     0.000172
   1 :     0.000000   255.629979     7.918835     0.187256     0.041280     0.010366
   2 :     0.000000    42.483820     2.637570     0.537800     0.331728     0.227674
   3 :     0.000000     4.602455     0.804192     1.629347     3.039956     6.378949
   4 :  1385.158857    84.267252     7.868378     0.161881     0.032006     0.007509
   5 :  1385.158857    84.267252     7.868378     0.161881     0.032006     0.007509
   6 :  1385.158857    84.267252     7.868378     0.161881     0.032006     0.007509
   7 :   203.681740    13.709705     2.522889     0.542624     0.343533     0.245521
   8 :   203.681740    13.709705     2.522889     0.542624     0.343533     0.245521
   9 :   203.681740    13.709705     2.522889     0.542624     0.343533     0.245521
  10 :    14.798039     1.236116     0.669142     1.951407     4.453058    11.692471
  11 :    14.798039     1.236116     0.669142     1.951407     4.453058    11.692471
  12 :    14.798039     1.236116     0.669142     1.951407     4.453058    11.692471
  13 :     3.267651     0.302619     0.308403     4.101980    18.376772    86.766417
  14 :     3.267651     0.302619     0.308403     4.101980    18.376772    86.766417
  15 :     3.267651     0.302619     0.308403     4.101980    18.376772    86.766417
  16 :     0.000000     1.387612     0.408850     3.154987    10.920729    39.956063
  17 :     0.998258     0.401530     0.484847     2.432112     6.429893    90.614432
  18 :     0.998258     0.401530     0.484847     2.432112     6.429893    90.614432
  19 :     0.998258     0.401530     0.484847     2.432112     6.429893    90.614432
  20 :     0.998258     0.401530     0.484847     2.432112     6.429893    90.614432
  21 :     0.998258     0.401530     0.484847     2.432112     6.429893    90.614432
  22 :    17.982234     1.338478     0.595212     2.606995     8.663414    34.465522
  23 :    17.982234     1.338478     0.595212     2.606995     8.663414    34.465522
  24 :    17.982234     1.338478     0.595212     2.606995     8.663414    34.465522
  25 :     0.112482     0.218111     0.453064     2.330689     5.707443   102.372384
  26 :     0.112482     0.218111     0.453064     2.330689     5.707443   102.372384
  27 :    26.687070     6.708016     2.276910     0.550881     0.371481     1.503010
  28 :    26.687070     6.708016     2.276910     0.550881     0.371481     1.503010
  29 :    26.687070     6.708016     2.276910     0.550881     0.371481     1.503010
  30 :    26.687070     6.708016     2.276910     0.550881     0.371481     1.503010
  31 :    26.687070     6.708016     2.276910     0.550881     0.371481     1.503010
  32 :     0.112482     0.218111     0.453064     2.330689     5.707443   102.372384
  33 :     0.112482     0.218111     0.453064     2.330689     5.707443   102.372384
  34 :     0.112482     0.218111     0.453064     2.330689     5.707443   102.372384
  35 :     0.112482     0.218111     0.453064     2.330689     5.707443   102.372384
  36 :     0.112482     0.218111     0.453064     2.330689     5.707443   102.372384
  37 :     3.287350     1.029069     0.730404     1.939400     4.670724    65.515905
  38 :     3.287350     1.029069     0.730404     1.939400     4.670724    65.515905
  39 :     3.287350     1.029069     0.730404     1.939400     4.670724    65.515905
  40 :     3.287350     1.029069     0.730404     1.939400     4.670724    65.515905
  41 :     3.287350     1.029069     0.730404     1.939400     4.670724    65.515905
  42 :     0.000000     5.875124     0.773622     2.081579     5.598881    18.079471
  43 :     0.206180     0.328667     0.557620     1.885126     3.718729    53.532991
  44 :     0.206180     0.328667     0.557620     1.885126     3.718729    53.532991
  45 :     0.206180     0.328667     0.557620     1.885126     3.718729    53.532991
  46 :     0.206180     0.328667     0.557620     1.885126     3.718729    53.532991
  47 :     0.206180     0.328667     0.557620     1.885126     3.718729    53.532991
  48 :     0.206180     0.328667     0.557620     1.885126     3.718729    53.532991
  49 :     0.206180     0.328667     0.557620     1.885126     3.718729    53.532991
  50 :     0.206180     0.328667     0.557620     1.885126     3.718729    53.532991
  51 :     0.206180     0.328667     0.557620     1.885126     3.718729    53.532991
  52 :     0.499267     0.564003     0.707338     1.635066     3.153034    49.904317
  53 :     0.499267     0.564003     0.707338     1.635066     3.153034    49.904317
  54 :     0.499267     0.564003     0.707338     1.635066     3.153034    49.904317
  55 :     0.499267     0.564003     0.707338     1.635066     3.153034    49.904317
  56 :     0.499267     0.564003     0.707338     1.635066     3.153034    49.904317
  57 :     0.499267     0.564003     0.707338     1.635066     3.153034    49.904317
  58 :     0.499267     0.564003     0.707338     1.635066     3.153034    49.904317
  59 :    49.462008     3.515332     1.048548     1.584010     3.569494    10.993542
  60 :    49.462008     3.515332     1.048548     1.584010     3.569494    10.993542
  61 :    49.462008     3.515332     1.048548     1.584010     3.569494    10.993542
  62 :    16.725816     3.774369     1.418166     1.192982     2.047624    22.923192
  63 :    16.725816     3.774369     1.418166     1.192982     2.047624    22.923192
  64 :    16.725816     3.774369     1.418166     1.192982     2.047624    22.923192
  65 :    16.725816     3.774369     1.418166     1.192982     2.047624    22.923192
  66 :    16.725816     3.774369     1.418166     1.192982     2.047624    22.923192
  67 :     0.000000    24.113609     1.610104     1.146581     1.964542     4.818510
  68 :   299.683971    17.671530     2.492145     0.845412     1.241425     3.023086
  69 :   299.683971    17.671530     2.492145     0.845412     1.241425     3.023086
  70 :   299.683971    17.671530     2.492145     0.845412     1.241425     3.023086
  71 :     0.000000    73.403615     3.131069     0.639029     0.679207     1.267101
  72 :     0.000000   238.753170     6.121764     0.357171     0.240671     0.361540
  73 :     0.000000   737.140485    14.112377     0.175955     0.074314     0.097252
  74 :     0.000000  9957.566958    57.438530     0.071552     0.022995     0.031132
-------
TIMINGS
-------

Total SCF time: 0 days 0 hours 0 min 5 sec 

Total time                  ....       5.505 sec
Sum of individual times     ....       5.480 sec  ( 99.5%)

Fock matrix formation       ....       3.709 sec  ( 67.4%)
Diagonalization             ....       0.006 sec  (  0.1%)
Density matrix formation    ....       0.001 sec  (  0.0%)
Population analysis         ....       0.001 sec  (  0.0%)
Initial guess               ....       0.114 sec  (  2.1%)
Orbital Transformation      ....       0.000 sec  (  0.0%)
Orbital Orthonormalization  ....       0.000 sec  (  0.0%)
DIIS solution               ....       0.001 sec  (  0.0%)
SOSCF solution              ....       0.024 sec  (  0.4%)
SCF Stability Analysis      ....       1.582 sec  ( 28.7%)

-------------------------   --------------------
FINAL SINGLE POINT ENERGY     -2752.054295773432
-------------------------   --------------------


                            ***************************************
                            *     ORCA property calculations      *
                            ***************************************

                                    ---------------------
                                    Active property flags
                                    ---------------------
   (+) Dipole Moment


------------------------------------------------------------------------------
                       ORCA ELECTRIC PROPERTIES CALCULATION
------------------------------------------------------------------------------

Dipole Moment Calculation                       ... on
Quadrupole Moment Calculation                   ... off
Polarizability Calculation                      ... off
GBWName                                         ... mol.gbw
Electron density file                           ... mol.scfp.tmp
The origin for moment calculation is the CENTER OF MASS  = ( 0.000000,  0.000000  0.000000)

-------------
DIPOLE MOMENT
-------------
                                X             Y             Z
Electronic contribution:      0.00000      -0.00000       0.00000
Nuclear contribution   :      0.00000       0.00000       0.00000
                        -----------------------------------------
Total Dipole Moment    :      0.00000      -0.00000       0.00000
                        -----------------------------------------
Magnitude (a.u.)       :      0.00000
Magnitude (Debye)      :      0.00000


Timings for individual modules:

Sum of individual times         ...        6.296 sec (=   0.105 min)
GTO integral calculation        ...        0.559 sec (=   0.009 min)   8.9 %
SCF iterations                  ...        5.737 sec (=   0.096 min)  91.1 %
                             ****ORCA TERMINATED NORMALLY****
TOTAL RUN TIME: 0 days 0 hours 0 minutes 6 seconds 657 msec
