[Molden Format]
[Title]
 Molden file created by orca_2mkl for BaseName=mol

[Atoms] AU
Sc   1  21          0.0000000000         0.0000000000         0.0000000000 
[GTO]
  1 0
s  11 1.0 
  2855231.1264000000         0.4403792697
   427433.3422100000         0.8242524843
    97233.2185450000         1.4291587442
    27496.2228460000         2.3440955190
     8948.7324409000         3.6713575185
     3221.0397292000         5.4943904367
     1252.0534077000         7.7504627808
      517.2609337600         9.9455646191
      224.3312724200        10.7875254136
      101.1055167100         8.5479891816
       46.6849578550         3.7071183594
s   4 1.0 
      947.7596548400         0.8711775449
      293.0726284600         3.5618718981
      111.7023065700         8.0840037707
       47.7562152120         8.3439077819
s   1 1.0 
       21.1219840090         7.0220048380
s   1 1.0 
        9.7765922198         3.9404944316
s   1 1.0 
        4.5982699340         2.2379786490
s   1 1.0 
        1.9928487767         1.1954071539
s   1 1.0 
        0.9593995446         0.6908912989
s   1 1.0 
        0.4256679007         0.3755893494
s   1 1.0 
        0.0981321960         0.1249593422
s   1 1.0 
        0.0568942222         0.0830254457
s   1 1.0 
        0.0253699072         0.0453053251
p   9 1.0 
     4611.4680242000        10.4019742559
     1092.4666458000        15.0598900938
      354.4192326500        20.3575820887
      134.8339028600        24.6129694811
       56.6108739260        25.4690745832
       25.3366055180        20.6429674719
       11.7413132380        11.7843786501
        5.5697268625         3.7791060670
        2.5949954062         0.4087941943
p   5 1.0 
       35.9511980810        -0.5644420286
       12.3010202320        -0.6867341415
        2.3876557755         0.9378226506
        1.1031823600         0.7694590588
        0.5000847950         0.2374110027
p   1 1.0 
        0.2079650880         0.2001834320
p   1 1.0 
        0.1010000000         0.0811599564
p   1 1.0 
        0.0480000000         0.0320251841
p   1 1.0 
        0.0230000000         0.0127673241
d   5 1.0 
       73.5311797480        24.7644249141
       21.7647596390        21.4051219999
        7.9233701690        14.1222162308
        3.1847889778         7.7174096395
        1.3427790019         3.0063994703
d   1 1.0 
        0.5614957498         1.0383085058
d   1 1.0 
        0.2276407365         0.2138737834
d   1 1.0 
        0.0852112218         0.0383124099
d   1 1.0 
        0.0350000000         0.0080740077
f   1 1.0 
        1.4810000000        13.7958657936
f   1 1.0 
        0.3450000000         0.5201074123
f   1 1.0 
        0.1100000000         0.0397313774
g   1 1.0 
        0.2470000000         0.1407297995

[5D]
[9G]
[MO]
 Sym=     1a
 Ene= -1.65899258320010E+02
 Spin= Alpha
 Occup= 1.000000
  1       0.954050791400
  2      -0.000092943235
  3       0.067744847833
  4      -0.000271419518
  5       0.001783855193
  6      -0.000843439831
  7       0.000394028754
  8      -0.000169178510
  9       0.000085535939
 10      -0.000070996282
 11       0.000017237771
 12       0.000000000000
 13      -0.000000000000
 14      -0.000000000000
 15      -0.000000000000
 16       0.000000000000
 17       0.000000000000
 18       0.000000000000
 19      -0.000000000000
 20      -0.000000000000
 21      -0.000000000000
 22       0.000000000000
 23       0.000000000000
 24       0.000000000000
 25      -0.000000000000
 26      -0.000000000000
 27      -0.000000000000
 28       0.000000000000
 29       0.000000000000
 30       0.000000395608
 31       0.000000000000
 32       0.000000000000
 33      -0.000000000000
 34       0.000000000000
 35      -0.000000966295
 36      -0.000000000000
 37       0.000000000000
 38      -0.000000000000
 39      -0.000000000000
 40       0.000000704629
 41      -0.000000000000
 42      -0.000000000000
 43      -0.000000000000
 44      -0.000000000000
 45      -0.000000356230
 46       0.000000000000
 47      -0.000000000000
 48       0.000000000000
 49       0.000000000000
 50       0.000000133660
 51       0.000000000000
 52      -0.000000000000
 53      -0.000000000000
 54       0.000000000000
 55      -0.000000000000
 56      -0.000000000000
 57       0.000000000000
 58       0.000000000000
 59      -0.000000000000
 60       0.000000000000
 61       0.000000000000
 62       0.000000000000
 63      -0.000000000000
 64      -0.000000000000
 65      -0.000000000000
 66      -0.000000000000
 67      -0.000000000000
 68       0.000000000000
 69      -0.000000000000
 70       0.000000000000
 71       0.000000000000
 72       0.000000000000
 73      -0.000000000000
 74       0.000000000000
 75      -0.000000000000
 76      -0.000000008635
 77      -0.000000000000
 78       0.000000000000
 79      -0.000000000000
 80       0.000000000000
 81      -0.000000000000
 82       0.000000000000
 83      -0.000000049816
 84       0.000000000000
 Sym=     1a
 Ene= -1.90857432226003E+01
 Spin= Alpha
 Occup= 1.000000
  1      -0.282206274002
  2      -0.167921571646
  3       0.036908187539
  4       0.500008539596
  5       0.516581684813
  6       0.097452796479
  7      -0.004009321078
  8       0.002857769214
  9      -0.000898072048
 10       0.000743479110
 11      -0.000179131975
 12      -0.000000000000
 13       0.000000000000
 14       0.000000000000
 15       0.000000000000
 16      -0.000000000000
 17      -0.000000000000
 18      -0.000000000000
 19       0.000000000000
 20       0.000000000000
 21       0.000000000000
 22      -0.000000000000
 23      -0.000000000000
 24      -0.000000000000
 25       0.000000000000
 26       0.000000000000
 27       0.000000000000
 28      -0.000000000000
 29      -0.000000000000
 30       0.000184763411
 31       0.000000000000
 32      -0.000000000000
 33       0.000000000000
 34       0.000000000000
 35      -0.000327095892
 36       0.000000000000
 37      -0.000000000000
 38       0.000000000000
 39       0.000000000000
 40       0.000179424148
 41      -0.000000000000
 42       0.000000000000
 43       0.000000000000
 44       0.000000000000
 45      -0.000093476665
 46      -0.000000000000
 47      -0.000000000000
 48      -0.000000000000
 49       0.000000000000
 50       0.000034837386
 51       0.000000000000
 52       0.000000000000
 53      -0.000000000000
 54       0.000000000000
 55      -0.000000000000
 56       0.000000000000
 57      -0.000000000000
 58      -0.000000000000
 59       0.000000000000
 60      -0.000000000000
 61       0.000000000000
 62      -0.000000000000
 63       0.000000000000
 64      -0.000000000000
 65       0.000000000000
 66       0.000000000000
 67      -0.000000000000
 68       0.000000000000
 69       0.000000000000
 70      -0.000000000000
 71       0.000000000000
 72       0.000000000000
 73      -0.000000000000
 74       0.000000000000
 75      -0.000000000000
 76       0.000007658027
 77       0.000000000000
 78      -0.000000000000
 79       0.000000000000
 80      -0.000000000000
 81      -0.000000000000
 82       0.000000000000
 83       0.000044990556
 84       0.000000000000
 Sym=     1a
 Ene= -1.56749338972150E+01
 Spin= Alpha
 Occup= 1.000000
  1      -0.000000000000
  2       0.000000000000
  3      -0.000000000000
  4       0.000000000000
  5      -0.000000000000
  6      -0.000000000000
  7       0.000000000000
  8      -0.000000000000
  9      -0.000000000000
 10       0.000000000000
 11      -0.000000000000
 12       0.000000000000
 13       0.000000000000
 14       0.998707770572
 15       0.000000000000
 16      -0.000000000000
 17       0.004036092706
 18      -0.000000000000
 19       0.000000000000
 20      -0.001197450270
 21       0.000000000000
 22      -0.000000000000
 23       0.000879935701
 24      -0.000000000000
 25       0.000000000000
 26      -0.000468943599
 27       0.000000000000
 28       0.000000000000
 29       0.000142623473
 30      -0.000000000000
 31       0.000000000000
 32       0.000000000000
 33      -0.000000000000
 34       0.000000000000
 35       0.000000000000
 36      -0.000000000000
 37      -0.000000000000
 38       0.000000000000
 39       0.000000000000
 40      -0.000000000000
 41      -0.000000000000
 42       0.000000000000
 43      -0.000000000000
 44      -0.000000000000
 45       0.000000000000
 46       0.000000000000
 47       0.000000000000
 48       0.000000000000
 49      -0.000000000000
 50       0.000000000000
 51      -0.000000000000
 52      -0.000000000000
 53      -0.000000000000
 54       0.000000000000
 55       0.000084765188
 56      -0.000000000000
 57      -0.000000000000
 58       0.000000000000
 59      -0.000000000000
 60      -0.000000000000
 61      -0.000000000000
 62      -0.000037617046
 63       0.000000000000
 64       0.000000000000
 65      -0.000000000000
 66       0.000000000000
 67       0.000000000000
 68      -0.000000000000
 69       0.000013309372
 70       0.000000000000
 71      -0.000000000000
 72       0.000000000000
 73      -0.000000000000
 74      -0.000000000000
 75       0.000000000000
 76      -0.000000000000
 77      -0.000000000000
 78       0.000000000000
 79       0.000000000000
 80      -0.000000000000
 81       0.000000000000
 82      -0.000000000000
 83       0.000000000000
 84       0.000000000000
 Sym=     1a
 Ene= -1.56727933316399E+01
 Spin= Alpha
 Occup= 1.000000
  1       0.000000000000
  2      -0.000000000000
  3       0.000000000000
  4       0.000000000000
  5      -0.000000000000
  6       0.000000000000
  7      -0.000000000000
  8       0.000000000000
  9       0.000000000000
 10      -0.000000000000
 11       0.000000000000
 12       0.000000000000
 13       0.998322976918
 14       0.000000000000
 15       0.000000000000
 16       0.005204278306
 17       0.000000000000
 18      -0.000000000000
 19      -0.001420469835
 20       0.000000000000
 21      -0.000000000000
 22       0.001153244729
 23      -0.000000000000
 24       0.000000000000
 25      -0.000615823048
 26       0.000000000000
 27       0.000000000000
 28       0.000189641009
 29      -0.000000000000
 30      -0.000000000000
 31       0.000000000000
 32       0.000000000000
 33       0.000000000000
 34      -0.000000000000
 35      -0.000000000000
 36       0.000000000000
 37       0.000000000000
 38       0.000000000000
 39       0.000000000000
 40      -0.000000000000
 41      -0.000000000000
 42      -0.000000000000
 43      -0.000000000000
 44       0.000000000000
 45       0.000000000000
 46      -0.000000000000
 47      -0.000000000000
 48       0.000000000000
 49      -0.000000000000
 50      -0.000000000000
 51      -0.000000000000
 52       0.000000000000
 53      -0.000000000000
 54      -0.000000000000
 55       0.000000000000
 56      -0.000000000000
 57      -0.000166578667
 58      -0.000000000000
 59      -0.000000000000
 60      -0.000000000000
 61      -0.000912088069
 62      -0.000000000000
 63       0.000000000000
 64      -0.000049040250
 65       0.000000000000
 66       0.000000000000
 67       0.000000000000
 68      -0.000069102645
 69       0.000000000000
 70       0.000000000000
 71       0.000004874910
 72      -0.000000000000
 73      -0.000000000000
 74      -0.000000000000
 75      -0.000023226616
 76       0.000000000000
 77      -0.000000000000
 78      -0.000000000000
 79      -0.000000000000
 80       0.000000000000
 81      -0.000000000000
 82       0.000000000000
 83       0.000000000000
 84       0.000000000000
 Sym=     1a
 Ene= -1.56727933316399E+01
 Spin= Alpha
 Occup= 1.000000
  1       0.000000000000
  2      -0.000000000000
  3       0.000000000000
  4      -0.000000000000
  5       0.000000000000
  6       0.000000000000
  7      -0.000000000000
  8       0.000000000000
  9      -0.000000000000
 10      -0.000000000000
 11       0.000000000000
 12       0.998322976918
 13       0.000000000000
 14       0.000000000000
 15       0.005204278306
 16      -0.000000000000
 17      -0.000000000000
 18      -0.001420469835
 19      -0.000000000000
 20      -0.000000000000
 21       0.001153244729
 22      -0.000000000000
 23      -0.000000000000
 24      -0.000615823048
 25       0.000000000000
 26       0.000000000000
 27       0.000189641009
 28      -0.000000000000
 29       0.000000000000
 30      -0.000000000000
 31      -0.000000000000
 32       0.000000000000
 33       0.000000000000
 34      -0.000000000000
 35      -0.000000000000
 36       0.000000000000
 37      -0.000000000000
 38      -0.000000000000
 39      -0.000000000000
 40       0.000000000000
 41      -0.000000000000
 42      -0.000000000000
 43       0.000000000000
 44       0.000000000000
 45       0.000000000000
 46       0.000000000000
 47      -0.000000000000
 48      -0.000000000000
 49       0.000000000000
 50      -0.000000000000
 51       0.000000000000
 52       0.000000000000
 53      -0.000000000000
 54       0.000000000000
 55      -0.000000000000
 56      -0.000166578667
 57       0.000000000000
 58      -0.000000000000
 59       0.000000000000
 60       0.000912088069
 61      -0.000000000000
 62       0.000000000000
 63      -0.000049040250
 64      -0.000000000000
 65       0.000000000000
 66      -0.000000000000
 67       0.000069102645
 68      -0.000000000000
 69      -0.000000000000
 70       0.000004874910
 71      -0.000000000000
 72       0.000000000000
 73      -0.000000000000
 74       0.000023226616
 75       0.000000000000
 76       0.000000000000
 77      -0.000000000000
 78      -0.000000000000
 79       0.000000000000
 80      -0.000000000000
 81       0.000000000000
 82       0.000000000000
 83      -0.000000000000
 84       0.000000000000
 Sym=     1a
 Ene= -2.59330869889081E+00
 Spin= Alpha
 Occup= 1.000000
  1       0.099085225974
  2       0.068665677754
  3      -0.013270996295
  4      -0.267618273749
  5      -0.442760341616
  6       0.046423016257
  7       0.708436524843
  8       0.459455530891
  9       0.027908324081
 10      -0.014787999999
 11       0.002778389402
 12       0.000000000000
 13      -0.000000000000
 14      -0.000000000000
 15      -0.000000000000
 16       0.000000000000
 17       0.000000000000
 18       0.000000000000
 19      -0.000000000000
 20      -0.000000000000
 21      -0.000000000000
 22       0.000000000000
 23       0.000000000000
 24       0.000000000000
 25      -0.000000000000
 26      -0.000000000000
 27      -0.000000000000
 28       0.000000000000
 29       0.000000000000
 30      -0.000136004248
 31      -0.000000000000
 32      -0.000000000000
 33       0.000000000000
 34      -0.000000000000
 35      -0.000835978637
 36       0.000000000000
 37       0.000000000000
 38       0.000000000000
 39       0.000000000000
 40      -0.001678431415
 41       0.000000000000
 42      -0.000000000000
 43      -0.000000000000
 44       0.000000000000
 45       0.000293402219
 46       0.000000000000
 47       0.000000000000
 48       0.000000000000
 49      -0.000000000000
 50      -0.000132962339
 51      -0.000000000000
 52      -0.000000000000
 53      -0.000000000000
 54      -0.000000000000
 55       0.000000000000
 56       0.000000000000
 57       0.000000000000
 58      -0.000000000000
 59       0.000000000000
 60      -0.000000000000
 61       0.000000000000
 62       0.000000000000
 63       0.000000000000
 64       0.000000000000
 65      -0.000000000000
 66      -0.000000000000
 67       0.000000000000
 68      -0.000000000000
 69       0.000000000000
 70      -0.000000000000
 71      -0.000000000000
 72      -0.000000000000
 73       0.000000000000
 74      -0.000000000000
 75       0.000000000000
 76       0.000418856115
 77       0.000000000000
 78      -0.000000000000
 79       0.000000000000
 80      -0.000000000000
 81       0.000000000000
 82      -0.000000000000
 83       0.002480887416
 84       0.000000000000
 Sym=     1a
 Ene= -1.62108729553098E+00
 Spin= Alpha
 Occup= 1.000000
  1      -0.000000000000
  2       0.000000000000
  3      -0.000000000000
  4       0.000000000000
  5      -0.000000000000
  6       0.000000000000
  7      -0.000000000000
  8       0.000000000000
  9      -0.000000000000
 10      -0.000000000000
 11       0.000000000000
 12      -0.000000000000
 13      -0.342252826297
 14      -0.000000000000
 15      -0.000000000000
 16       1.000360079584
 17       0.000000000000
 18       0.000000000000
 19       0.092141146198
 20      -0.000000000000
 21       0.000000000000
 22      -0.005060060803
 23       0.000000000000
 24      -0.000000000000
 25       0.005206273330
 26      -0.000000000000
 27      -0.000000000000
 28      -0.001213659909
 29       0.000000000000
 30      -0.000000000000
 31       0.000000000000
 32      -0.000000000000
 33      -0.000000000000
 34       0.000000000000
 35       0.000000000000
 36      -0.000000000000
 37       0.000000000000
 38      -0.000000000000
 39       0.000000000000
 40      -0.000000000000
 41       0.000000000000
 42       0.000000000000
 43       0.000000000000
 44       0.000000000000
 45       0.000000000000
 46      -0.000000000000
 47       0.000000000000
 48      -0.000000000000
 49       0.000000000000
 50       0.000000000000
 51       0.000000000000
 52      -0.000000000000
 53      -0.000000000000
 54      -0.000000000000
 55      -0.000000000000
 56      -0.000000000000
 57      -0.001100071942
 58       0.000000000000
 59       0.000000000000
 60       0.000000000000
 61      -0.011702785448
 62      -0.000000000000
 63       0.000000000000
 64      -0.002639022253
 65      -0.000000000000
 66       0.000000000000
 67      -0.000000000000
 68      -0.012604529357
 69       0.000000000000
 70      -0.000000000000
 71      -0.000209596306
 72       0.000000000000
 73      -0.000000000000
 74      -0.000000000000
 75       0.000171333886
 76       0.000000000000
 77       0.000000000000
 78       0.000000000000
 79      -0.000000000000
 80       0.000000000000
 81       0.000000000000
 82      -0.000000000000
 83      -0.000000000000
 84       0.000000000000
 Sym=     1a
 Ene= -1.62108729553098E+00
 Spin= Alpha
 Occup= 1.000000
  1       0.000000000000
  2      -0.000000000000
  3       0.000000000000
  4      -0.000000000000
  5       0.000000000000
  6      -0.000000000000
  7       0.000000000000
  8      -0.000000000000
  9       0.000000000000
 10      -0.000000000000
 11       0.000000000000
 12       0.342252826297
 13       0.000000000000
 14       0.000000000000
 15      -1.000360079584
 16       0.000000000000
 17       0.000000000000
 18      -0.092141146198
 19       0.000000000000
 20      -0.000000000000
 21       0.005060060803
 22      -0.000000000000
 23      -0.000000000000
 24      -0.005206273330
 25       0.000000000000
 26       0.000000000000
 27       0.001213659909
 28      -0.000000000000
 29       0.000000000000
 30       0.000000000000
 31       0.000000000000
 32       0.000000000000
 33      -0.000000000000
 34       0.000000000000
 35      -0.000000000000
 36       0.000000000000
 37       0.000000000000
 38      -0.000000000000
 39       0.000000000000
 40       0.000000000000
 41       0.000000000000
 42      -0.000000000000
 43       0.000000000000
 44      -0.000000000000
 45       0.000000000000
 46      -0.000000000000
 47      -0.000000000000
 48      -0.000000000000
 49      -0.000000000000
 50      -0.000000000000
 51      -0.000000000000
 52       0.000000000000
 53       0.000000000000
 54       0.000000000000
 55      -0.000000000000
 56       0.001100071942
 57       0.000000000000
 58       0.000000000000
 59      -0.000000000000
 60      -0.011702785448
 61      -0.000000000000
 62      -0.000000000000
 63       0.002639022253
 64       0.000000000000
 65      -0.000000000000
 66       0.000000000000
 67      -0.012604529357
 68      -0.000000000000
 69       0.000000000000
 70       0.000209596306
 71       0.000000000000
 72       0.000000000000
 73      -0.000000000000
 74       0.000171333886
 75      -0.000000000000
 76      -0.000000000000
 77       0.000000000000
 78       0.000000000000
 79       0.000000000000
 80      -0.000000000000
 81       0.000000000000
 82       0.000000000000
 83      -0.000000000000
 84       0.000000000000
 Sym=     1a
 Ene= -1.58194722910651E+00
 Spin= Alpha
 Occup= 1.000000
  1       0.000000000000
  2      -0.000000000000
  3       0.000000000000
  4      -0.000000000000
  5      -0.000000000000
  6       0.000000000000
  7      -0.000000000000
  8       0.000000000000
  9      -0.000000000000
 10      -0.000000000000
 11       0.000000000000
 12      -0.000000000000
 13       0.000000000000
 14      -0.342612984658
 15      -0.000000000000
 16      -0.000000000000
 17       1.006066827342
 18      -0.000000000000
 19      -0.000000000000
 20       0.083852928753
 21       0.000000000000
 22       0.000000000000
 23      -0.003754497710
 24      -0.000000000000
 25      -0.000000000000
 26       0.003342674962
 27      -0.000000000000
 28       0.000000000000
 29      -0.000665754891
 30      -0.000000000000
 31      -0.000000000000
 32       0.000000000000
 33      -0.000000000000
 34       0.000000000000
 35      -0.000000000000
 36       0.000000000000
 37       0.000000000000
 38       0.000000000000
 39       0.000000000000
 40       0.000000000000
 41      -0.000000000000
 42      -0.000000000000
 43      -0.000000000000
 44      -0.000000000000
 45       0.000000000000
 46      -0.000000000000
 47      -0.000000000000
 48      -0.000000000000
 49      -0.000000000000
 50      -0.000000000000
 51       0.000000000000
 52       0.000000000000
 53       0.000000000000
 54       0.000000000000
 55       0.002420459662
 56      -0.000000000000
 57      -0.000000000000
 58       0.000000000000
 59      -0.000000000000
 60      -0.000000000000
 61      -0.000000000000
 62       0.000815994662
 63      -0.000000000000
 64       0.000000000000
 65      -0.000000000000
 66       0.000000000000
 67      -0.000000000000
 68      -0.000000000000
 69      -0.000313699465
 70       0.000000000000
 71      -0.000000000000
 72       0.000000000000
 73      -0.000000000000
 74      -0.000000000000
 75       0.000000000000
 76      -0.000000000000
 77      -0.000000000000
 78      -0.000000000000
 79       0.000000000000
 80      -0.000000000000
 81      -0.000000000000
 82       0.000000000000
 83      -0.000000000000
 84       0.000000000000
 Sym=     1a
 Ene= -3.52786801812392E-01
 Spin= Alpha
 Occup= 1.000000
  1      -0.000000000000
  2       0.000000000000
  3      -0.000000000000
  4       0.000000000000
  5      -0.000000000000
  6       0.000000000000
  7       0.000000000000
  8      -0.000000000000
  9       0.000000000000
 10      -0.000000000000
 11       0.000000000000
 12       0.000000000000
 13      -0.000000000000
 14      -0.000000000000
 15      -0.000000000000
 16       0.000000000000
 17      -0.000000000000
 18       0.000000000000
 19      -0.000000000000
 20       0.000000000000
 21       0.000000000000
 22      -0.000000000000
 23       0.000000000000
 24      -0.000000000000
 25       0.000000000000
 26       0.000000000000
 27      -0.000000000000
 28       0.000000000000
 29      -0.000000000000
 30      -0.000000000000
 31       0.000000000000
 32      -0.000000000000
 33       0.000000000000
 34      -0.479217870124
 35       0.000000000000
 36      -0.000000000000
 37      -0.000000000000
 38      -0.000000000000
 39      -0.374805141058
 40      -0.000000000000
 41       0.000000000000
 42       0.000000000000
 43       0.000000000000
 44      -0.312822504323
 45       0.000000000000
 46      -0.000000000000
 47      -0.000000000000
 48      -0.000000000000
 49      -0.118124983639
 50       0.000000000000
 51      -0.000000000000
 52       0.000000000000
 53      -0.000000000000
 54      -0.002916261175
 55      -0.000000000000
 56      -0.000000000000
 57      -0.000000000000
 58       0.000000000000
 59       0.000000000000
 60       0.000000000000
 61      -0.000000000000
 62      -0.000000000000
 63      -0.000000000000
 64       0.000000000000
 65      -0.000000000000
 66      -0.000000000000
 67       0.000000000000
 68       0.000000000000
 69       0.000000000000
 70      -0.000000000000
 71       0.000000000000
 72       0.000000000000
 73       0.000000000000
 74       0.000000000000
 75       0.000000000000
 76      -0.000000000000
 77      -0.000000000000
 78      -0.000000000000
 79      -0.000000000000
 80       0.001529781960
 81       0.000000000000
 82      -0.000000000000
 83       0.000000000000
 84      -0.000000000000
 Sym=     1a
 Ene= -2.16081048406437E-01
 Spin= Alpha
 Occup= 1.000000
  1      -0.024207080998
  2      -0.017079215180
  3       0.003162475671
  4       0.069462232608
  5       0.120925674266
  6      -0.018846591227
  7      -0.245482349215
  8      -0.316546761967
  9       0.277934600082
 10       0.574392459296
 11       0.323069883102
 12      -0.000000000000
 13       0.000000000000
 14       0.000000000000
 15       0.000000000000
 16      -0.000000000000
 17      -0.000000000000
 18      -0.000000000000
 19       0.000000000000
 20       0.000000000000
 21       0.000000000000
 22      -0.000000000000
 23      -0.000000000000
 24      -0.000000000000
 25       0.000000000000
 26       0.000000000000
 27       0.000000000000
 28      -0.000000000000
 29      -0.000000000000
 30      -0.009754455423
 31      -0.000000000000
 32       0.000000000000
 33       0.000000000000
 34      -0.000000000000
 35      -0.008559213068
 36      -0.000000000000
 37       0.000000000000
 38      -0.000000000000
 39      -0.000000000000
 40      -0.004747354614
 41      -0.000000000000
 42       0.000000000000
 43       0.000000000000
 44       0.000000000000
 45      -0.003397439710
 46       0.000000000000
 47      -0.000000000000
 48      -0.000000000000
 49      -0.000000000000
 50      -0.000499780355
 51       0.000000000000
 52      -0.000000000000
 53       0.000000000000
 54      -0.000000000000
 55       0.000000000000
 56      -0.000000000000
 57       0.000000000000
 58       0.000000000000
 59       0.000000000000
 60      -0.000000000000
 61       0.000000000000
 62       0.000000000000
 63       0.000000000000
 64      -0.000000000000
 65      -0.000000000000
 66       0.000000000000
 67      -0.000000000000
 68      -0.000000000000
 69      -0.000000000000
 70      -0.000000000000
 71       0.000000000000
 72       0.000000000000
 73       0.000000000000
 74       0.000000000000
 75       0.000000000000
 76       0.000529173430
 77      -0.000000000000
 78       0.000000000000
 79       0.000000000000
 80       0.000000000000
 81      -0.000000000000
 82       0.000000000000
 83       0.003666076209
 84       0.000000000000
 Sym=     1a
 Ene= 2.01797851697698E-02
 Spin= Alpha
 Occup= 0.000000
  1       0.000000000000
  2       0.000000000000
  3      -0.000000000000
  4      -0.000000000000
  5       0.000000000000
  6      -0.000000000000
  7       0.000000000000
  8       0.000000000000
  9      -0.000000000000
 10      -0.000000000000
 11      -0.000000000000
 12      -0.041606338640
 13      -0.000000000000
 14      -0.000000000000
 15       0.144261843860
 16      -0.000000000000
 17      -0.000000000000
 18       0.078086488206
 19       0.000000000000
 20       0.000000000000
 21      -0.387620622493
 22      -0.000000000000
 23      -0.000000000000
 24       0.324723525122
 25       0.000000000000
 26      -0.000000000000
 27      -1.087194110620
 28      -0.000000000000
 29       0.000000000000
 30       0.000000000000
 31      -0.000000000000
 32      -0.000000000000
 33       0.000000000000
 34       0.000000000000
 35       0.000000000000
 36       0.000000000000
 37      -0.000000000000
 38      -0.000000000000
 39       0.000000000000
 40      -0.000000000000
 41      -0.000000000000
 42       0.000000000000
 43       0.000000000000
 44       0.000000000000
 45       0.000000000000
 46       0.000000000000
 47       0.000000000000
 48      -0.000000000000
 49       0.000000000000
 50       0.000000000000
 51      -0.000000000000
 52      -0.000000000000
 53      -0.000000000000
 54       0.000000000000
 55      -0.000000000000
 56       0.000340924686
 57      -0.000000000000
 58      -0.000000000000
 59       0.000000000000
 60       0.000010582336
 61       0.000000000000
 62       0.000000000000
 63       0.000509189947
 64      -0.000000000000
 65       0.000000000000
 66      -0.000000000000
 67      -0.003211302378
 68      -0.000000000000
 69       0.000000000000
 70      -0.000523054713
 71      -0.000000000000
 72      -0.000000000000
 73      -0.000000000000
 74      -0.004292427797
 75      -0.000000000000
 76      -0.000000000000
 77      -0.000000000000
 78       0.000000000000
 79       0.000000000000
 80       0.000000000000
 81       0.000000000000
 82      -0.000000000000
 83       0.000000000000
 84       0.000000000000
 Sym=     1a
 Ene= 2.01797851697707E-02
 Spin= Alpha
 Occup= 0.000000
  1      -0.000000000000
  2      -0.000000000000
  3       0.000000000000
  4       0.000000000000
  5      -0.000000000000
  6       0.000000000000
  7      -0.000000000000
  8      -0.000000000000
  9       0.000000000000
 10       0.000000000000
 11       0.000000000000
 12      -0.000000000000
 13      -0.041606338640
 14       0.000000000000
 15      -0.000000000000
 16       0.144261843860
 17      -0.000000000000
 18       0.000000000000
 19       0.078086488206
 20       0.000000000000
 21       0.000000000000
 22      -0.387620622493
 23      -0.000000000000
 24       0.000000000000
 25       0.324723525122
 26       0.000000000000
 27      -0.000000000000
 28      -1.087194110620
 29      -0.000000000000
 30      -0.000000000000
 31       0.000000000000
 32       0.000000000000
 33      -0.000000000000
 34      -0.000000000000
 35      -0.000000000000
 36      -0.000000000000
 37       0.000000000000
 38       0.000000000000
 39      -0.000000000000
 40       0.000000000000
 41       0.000000000000
 42      -0.000000000000
 43       0.000000000000