[Molden Format]
[Title]
 Molden file created by orca_2mkl for BaseName=mol

[Atoms] AU
B    1   5          0.0000000000         0.0000000000         0.0000000000 
[GTO]
  1 0
s   8 1.0 
    46447.6670560000         0.1606515815
     6957.6889042000         0.3006486321
     1583.4428403000         0.5194566708
      448.4660100900         0.8440012200
      146.2863926200         1.2873788277
       52.7843860840         1.8032070283
       20.5193961700         2.1831151925
        8.4185659258         2.0862074964
s   2 1.0 
       36.5100183120         0.9826224617
       10.5418540050         3.8673377084
s   1 1.0 
        3.6004091387         1.8628332613
s   1 1.0 
        1.5617023749         0.9956548080
s   1 1.0 
        0.4499737078         0.3915619170
s   1 1.0 
        0.1807523024         0.1975708966
s   1 1.0 
        0.0715966963         0.0986460794
p   5 1.0 
       72.2404627600         0.7110832529
       16.8077072080         0.9129911998
        5.2259410747         0.9549325132
        1.8508350671         0.8786667718
        0.7220678266         0.6794554600
p   1 1.0 
        0.2949101806         0.3097792288
p   1 1.0 
        0.1220114184         0.1027875898
p   1 1.0 
        0.0498653936         0.0335883873
d   1 1.0 
        1.1100000000         3.4220416922
d   1 1.0 
        0.4020000000         0.5785830099
d   1 1.0 
        0.1450000000         0.0971323928
f   1 1.0 
        0.8820000000         4.2983759315
f   1 1.0 
        0.3110000000         0.4118233381
g   1 1.0 
        0.6730000000         2.2156995737

[5D]
[9G]
[MO]
 Sym=     1a
 Ene= -7.70112603462657E+00
 Spin= Alpha
 Occup= 1.000000
  1       0.539717520768
  2      -0.000537797810
  3       0.373755215727
  4       0.181246885986
  5       0.011656696696
  6      -0.002202146352
  7       0.000785535233
  8       0.000000000000
  9       0.000000000000
 10       0.000000000000
 11      -0.000000000000
 12       0.000000000000
 13       0.000000000000
 14       0.000000000000
 15       0.000000000000
 16      -0.000000000000
 17       0.000000000000
 18       0.000000000000
 19       0.000000000000
 20      -0.000454901382
 21       0.000000000000
 22       0.000000000000
 23      -0.000787912307
 24       0.000000000000
 25      -0.000342565175
 26       0.000000000000
 27      -0.000000000000
 28      -0.000593340289
 29       0.000000000000
 30      -0.000060246081
 31       0.000000000000
 32       0.000000000000
 33      -0.000104349273
 34      -0.000000000000
 35       0.000000000000
 36      -0.000000000000
 37      -0.000000000000
 38       0.000000000000
 39      -0.000000000000
 40       0.000000000000
 41       0.000000000000
 42      -0.000000000000
 43       0.000000000000
 44       0.000000000000
 45      -0.000000000000
 46       0.000000000000
 47       0.000000000000
 48       0.000000000000
 49       0.000000647277
 50       0.000000000000
 51       0.000000000000
 52       0.000000964903
 53      -0.000000000000
 54       0.000000000000
 55       0.000000000000
 56      -0.000001276447
 57       0.000000000000
 Sym=     1a
 Ene= -5.45156506308795E-01
 Spin= Alpha
 Occup= 1.000000
  1       0.112003891218
  2       0.014047968297
  3       0.140040048392
  4       0.101931775740
  5      -0.298431432400
  6      -0.599771095771
  7      -0.239302142517
  8      -0.000000000000
  9       0.000000000000
 10       0.000000000000
 11       0.000000000000
 12       0.000000000000
 13      -0.000000000000
 14       0.000000000000
 15      -0.000000000000
 16       0.000000000000
 17      -0.000000000000
 18       0.000000000000
 19      -0.000000000000
 20       0.003893672061
 21      -0.000000000000
 22       0.000000000000
 23       0.006744037837
 24       0.000000000000
 25       0.011443781687
 26      -0.000000000000
 27      -0.000000000000
 28       0.019821211313
 29       0.000000000000
 30       0.016606642467
 31      -0.000000000000
 32       0.000000000000
 33       0.028763548496
 34      -0.000000000000
 35       0.000000000000
 36       0.000000000000
 37       0.000000000000
 38      -0.000000000000
 39      -0.000000000000
 40       0.000000000000
 41       0.000000000000
 42      -0.000000000000
 43       0.000000000000
 44      -0.000000000000
 45       0.000000000000
 46       0.000000000000
 47      -0.000000000000
 48       0.000000000000
 49       0.000035023609
 50       0.000000000000
 51       0.000000000000
 52       0.000052210114
 53       0.000000000000
 54       0.000000000000
 55      -0.000000000000
 56      -0.000069067489
 57       0.000000000000
 Sym=     1a
 Ene= -3.18755038404905E-01
 Spin= Alpha
 Occup= 1.000000
  1       0.000000000000
  2       0.000000000000
  3      -0.000000000000
  4       0.000000000000
  5      -0.000000000000
  6      -0.000000000000
  7      -0.000000000000
  8       0.000000000000
  9       0.312120974078
 10       0.000000000000
 11      -0.000000000000
 12       0.379231365859
 13      -0.000000000000
 14      -0.000000000000
 15       0.376621321032
 16       0.000000000000
 17       0.000000000000
 18       0.130902235260
 19      -0.000000000000
 20      -0.000000000000
 21      -0.000000000000
 22       0.000000000000
 23      -0.000000000000
 24      -0.000000000000
 25       0.000000000000
 26      -0.000000000000
 27       0.000000000000
 28      -0.000000000000
 29       0.000000000000
 30       0.000000000000
 31      -0.000000000000
 32       0.000000000000
 33      -0.000000000000
 34      -0.000000000000
 35      -0.000000000000
 36      -0.000000000000
 37      -0.000284501708
 38       0.000000000000
 39       0.000000000000
 40       0.000000000000
 41       0.000367290126
 42      -0.000000000000
 43       0.000000000000
 44      -0.001855329718
 45      -0.000000000000
 46       0.000000000000
 47       0.000000000000
 48       0.002395220367
 49      -0.000000000000
 50       0.000000000000
 51       0.000000000000
 52      -0.000000000000
 53       0.000000000000
 54       0.000000000000
 55      -0.000000000000
 56       0.000000000000
 57       0.000000000000
 Sym=     1a
 Ene= 3.62481778153475E-02
 Spin= Alpha
 Occup= 0.000000
  1      -0.000000000000
  2       0.000000000000
  3       0.000000000000
  4      -0.000000000000
  5      -0.000000000000
  6      -0.000000000000
  7      -0.000000000000
  8      -0.164450712446
  9      -0.000000000000
 10       0.000000000000
 11      -0.262319696740
 12       0.000000000000
 13       0.000000000000
 14      -0.078704571911
 15      -0.000000000000
 16      -0.000000000000
 17      -0.719996986884
 18       0.000000000000
 19      -0.000000000000
 20       0.000000000000
 21      -0.000000000000
 22       0.000000000000
 23       0.000000000000
 24      -0.000000000000
 25      -0.000000000000
 26      -0.000000000000
 27      -0.000000000000
 28      -0.000000000000
 29       0.000000000000
 30       0.000000000000
 31       0.000000000000
 32      -0.000000000000
 33       0.000000000000
 34      -0.000000000000
 35       0.000000000000
 36       0.000154755560
 37       0.000000000000
 38      -0.000000000000
 39      -0.000000000000
 40      -0.000599365706
 41      -0.000000000000
 42       0.000000000000
 43       0.000350224431
 44      -0.000000000000
 45      -0.000000000000
 46      -0.000000000000
 47      -0.001356413390
 48       0.000000000000
 49      -0.000000000000
 50      -0.000000000000
 51       0.000000000000
 52      -0.000000000000
 53       0.000000000000
 54      -0.000000000000
 55      -0.000000000000
 56      -0.000000000000
 57       0.000000000000
 Sym=     1a
 Ene= 3.62481778153479E-02
 Spin= Alpha
 Occup= 0.000000
  1      -0.000000000000
  2       0.000000000000
  3       0.000000000000
  4      -0.000000000000
  5       0.000000000000
  6      -0.000000000000
  7       0.000000000000
  8       0.000000000000
  9      -0.000000000000
 10      -0.164450712446
 11      -0.000000000000
 12       0.000000000000
 13      -0.262319696740
 14       0.000000000000
 15      -0.000000000000
 16      -0.078704571911
 17      -0.000000000000
 18       0.000000000000
 19      -0.719996986884
 20       0.000000000000
 21      -0.000000000000
 22       0.000000000000
 23      -0.000000000000
 24       0.000000000000
 25       0.000000000000
 26      -0.000000000000
 27      -0.000000000000
 28       0.000000000000
 29       0.000000000000
 30       0.000000000000
 31      -0.000000000000
 32       0.000000000000
 33      -0.000000000000
 34       0.000000000000
 35       0.000379072156
 36      -0.000000000000
 37       0.000000000000
 38       0.000489380049
 39       0.000000000000
 40       0.000000000000
 41      -0.000000000000
 42       0.000857871152
 43       0.000000000000
 44       0.000000000000
 45       0.001107506896
 46       0.000000000000
 47      -0.000000000000
 48       0.000000000000
 49      -0.000000000000
 50      -0.000000000000
 51       0.000000000000
 52      -0.000000000000
 53       0.000000000000
 54      -0.000000000000
 55      -0.000000000000
 56       0.000000000000
 57       0.000000000000
 Sym=     1a
 Ene= 1.45582612783613E-01
 Spin= Alpha
 Occup= 0.000000
  1       0.000000000000
  2      -0.000000000000
  3      -0.000000000000
  4       0.000000000000
  5      -0.000000000000
  6       0.000000000000
  7      -0.000000000000
  8      -0.000000000000
  9      -0.169811327219
 10       0.000000000000
 11       0.000000000000
 12       0.056782000207
 13      -0.000000000000
 14       0.000000000000
 15      -1.013042988170
 16       0.000000000000
 17      -0.000000000000
 18       1.542538820339
 19      -0.000000000000
 20       0.000000000000
 21      -0.000000000000
 22       0.000000000000
 23      -0.000000000000
 24       0.000000000000
 25      -0.000000000000
 26      -0.000000000000
 27       0.000000000000
 28       0.000000000000
 29       0.000000000000
 30       0.000000000000
 31      -0.000000000000
 32       0.000000000000
 33       0.000000000000
 34       0.000000000000
 35      -0.000000000000
 36       0.000000000000
 37      -0.000208434415
 38       0.000000000000
 39      -0.000000000000
 40      -0.000000000000
 41       0.000269087672
 42       0.000000000000
 43      -0.000000000000
 44       0.000498162205
 45       0.000000000000
 46      -0.000000000000
 47      -0.000000000000
 48      -0.000643124642
 49       0.000000000000
 50       0.000000000000
 51      -0.000000000000
 52       0.000000000000
 53      -0.000000000000
 54       0.000000000000
 55       0.000000000000
 56      -0.000000000000
 57       0.000000000000
 Sym=     1a
 Ene= 1.84807309931154E-01
 Spin= Alpha
 Occup= 0.000000
  1       0.000000000000
  2      -0.000000000000
  3      -0.000000000000
  4       0.000000000000
  5      -0.000000000000
  6       0.000000000000
  7      -0.000000000000
  8       0.000000000000
  9      -0.000000000000
 10       0.242004926418
 11       0.000000000000
 12       0.000000000000
 13      -0.007589618430
 14       0.000000000000
 15      -0.000000000000
 16       1.320014472939
 17      -0.000000000000
 18      -0.000000000000
 19      -1.431119956718
 20       0.000000000000
 21       0.000000000000
 22      -0.000000000000
 23      -0.000000000000
 24       0.000000000000
 25       0.000000000000
 26       0.000000000000
 27      -0.000000000000
 28       0.000000000000
 29       0.000000000000
 30      -0.000000000000
 31       0.000000000000
 32      -0.000000000000
 33      -0.000000000000
 34      -0.000000000000
 35      -0.000087828672
 36       0.000000000000
 37      -0.000000000000
 38      -0.000113386329
 39       0.000000000000
 40       0.000000000000
 41      -0.000000000000
 42      -0.000649206643
 43      -0.000000000000
 44       0.000000000000
 45      -0.000838122172
 46       0.000000000000
 47      -0.000000000000
 48       0.000000000000
 49      -0.000000000000
 50      -0.000000000000
 51       0.000000000000
 52       0.000000000000
 53       0.000000000000
 54       0.000000000000
 55      -0.000000000000
 56       0.000000000000
 57       0.000000000000
 Sym=     1a
 Ene= 1.84807309931154E-01
 Spin= Alpha
 Occup= 0.000000
  1       0.000000000000
  2      -0.000000000000
  3      -0.000000000000
  4       0.000000000000
  5      -0.000000000000
  6       0.000000000000
  7       0.000000000000
  8       0.242004926418
  9      -0.000000000000
 10      -0.000000000000
 11      -0.007589618430
 12       0.000000000000
 13       0.000000000000
 14       1.320014472939
 15      -0.000000000000
 16       0.000000000000
 17      -1.431119956718
 18       0.000000000000
 19      -0.000000000000
 20       0.000000000000
 21       0.000000000000
 22      -0.000000000000
 23       0.000000000000
 24      -0.000000000000
 25      -0.000000000000
 26       0.000000000000
 27       0.000000000000
 28      -0.000000000000
 29       0.000000000000
 30       0.000000000000
 31      -0.000000000000
 32       0.000000000000
 33       0.000000000000
 34      -0.000000000000
 35       0.000000000000
 36      -0.000035855905
 37       0.000000000000
 38      -0.000000000000
 39      -0.000000000000
 40       0.000138869324
 41       0.000000000000
 42       0.000000000000
 43      -0.000265037502
 44      -0.000000000000
 45       0.000000000000
 46      -0.000000000000
 47       0.001026485832
 48      -0.000000000000
 49      -0.000000000000
 50      -0.000000000000
 51       0.000000000000
 52      -0.000000000000
 53       0.000000000000
 54      -0.000000000000
 55      -0.000000000000
 56       0.000000000000
 57       0.000000000000
 Sym=     1a
 Ene= 2.01992342733411E-01
 Spin= Alpha
 Occup= 0.000000
  1       0.063659070523
  2      -0.006233184047
  3       0.130994876727
  4      -0.088428343167
  5       0.392379067002
  6      -2.220351754832
  7       2.136104111199
  8      -0.000000000000
  9       0.000000000000
 10       0.000000000000
 11      -0.000000000000
 12      -0.000000000000
 13      -0.000000000000
 14       0.000000000000
 15       0.000000000000
 16      -0.000000000000
 17      -0.000000000000
 18      -0.000000000000
 19       0.000000000000
 20       0.002239298103
 21       0.000000000000
 22       0.000000000000
 23       0.003878578087
 24       0.000000000000
 25      -0.002443732099
 26       0.000000000000
 27      -0.000000000000
 28      -0.004232668156
 29       0.000000000000
 30       0.015720007397
 31       0.000000000000
 32       0.000000000000
 33       0.027227851506
 34      -0.000000000000
 35      -0.000000000000
 36       0.000000000000
 37      -0.000000000000
 38       0.000000000000
 39       0.000000000000
 40       0.000000000000
 41       0.000000000000
 42       0.000000000000
 43       0.000000000000
 44       0.000000000000
 45      -0.000000000000
 46      -0.000000000000
 47       0.000000000000
 48       0.000000000000
 49       0.000018366524
 50       0.000000000000
 51       0.000000000000
 52       0.000027379198
 53       0.000000000000
 54      -0.000000000000
 55      -0.000000000000
 56      -0.000036219274
 57       0.000000000000
 Sym=     1a
 Ene= 3.98688637439514E-01
 Spin= Alpha
 Occup= 0.000000
  1       0.006888947255
  2       0.000011465080
  3       0.012087069733
  4      -0.003084826976
  5       0.009414094163
  6      -0.106668911688
  7       0.055853689801
  8       0.000000000000
  9      -0.000000000000
 10      -0.000000000000
 11       0.000000000000
 12       0.000000000000
 13       0.000000000000
 14      -0.000000000000
 15       0.000000000000
 16       0.000000000000
 17       0.000000000000
 18      -0.000000000000
 19      -0.000000000000
 20      -0.030814358161
 21       0.000000000000
 22      -0.000000000000
 23      -0.053372033938
 24      -0.000000000000
 25       0.076626972845
 26       0.000000000000
 27       0.000000000000
 28       0.132721810197
 29       0.000000000000
 30      -0.540382772505
 31       0.000000000000
 32      -0.000000000000
 33      -0.935970417514
 34       0.000000000000
 35       0.000000000000
 36      -0.000000000000
 37       0.000000000000
 38       0.000000000000
 39      -0.000000000000
 40      -0.000000000000
 41      -0.000000000000
 42      -0.000000000000
 43      -0.000000000000
 44       0.000000000000
 45       0.000000000000
 46       0.000000000000
 47       0.000000000000
 48       0.000000000000
 49      -0.000587375085
 50      -0.000000000000
 51      -0.000000000000
 52      -0.000875607079
 53      -0.000000000000
 54      -0.000000000000
 55       0.000000000000
 56       0.001158319288
 57       0.000000000000
 Sym=     1a
 Ene= 4.00110960882861E-01
 Spin= Alpha
 Occup= 0.000000
  1       0.000000000000
  2       0.000000000000
  3      -0.000000000000
  4       0.000000000000
  5       0.000000000000
  6      -0.000000000000
  7       0.000000000000
  8      -0.000000000000
  9       0.000000000000
 10       0.000000000000
 11      -0.000000000000
 12       0.000000000000
 13      -0.000000000000
 14       0.000000000000
 15      -0.000000000000
 16      -0.000000000000
 17      -0.000000000000
 18      -0.000000000000
 19      -0.000000000000
 20       0.000000000000
 21       0.000000000000
 22      -0.000000000000
 23       0.000000000000
 24       0.061729787005
 25      -0.000000000000
 26      -0.000000000000
 27       0.000000000000
 28      -0.000000000000
 29      -0.158947844209
 30       0.000000000000
 31       0.000000000000
 32      -0.000000000000
 33       0.000000000000
 34       1.085680322079
 35       0.000000000000
 36      -0.000000000000
 37      -0.000000000000
 38      -0.000000000000
 39      -0.000000000000
 40       0.000000000000
 41       0.000000000000
 42       0.000000000000
 43       0.000000000000
 44       0.000000000000
 45       0.000000000000
 46       0.000000000000
 47       0.000000000000
 48       0.000000000000
 49      -0.000000000000
 50       0.000000000000
 51       0.000000000000
 52      -0.000000000000
 53       0.000504408913
 54      -0.000000000000
 55      -0.000000000000
 56      -0.000000000000
 57      -0.001334540542
 Sym=     1a
 Ene= 4.00110960882863E-01
 Spin= Alpha
 Occup= 0.000000
  1       0.000000000000
  2       0.000000000000
  3      -0.000000000000
  4       0.000000000000
  5      -0.000000000000
  6      -0.000000000000
  7       0.000000000000
  8      -0.000000000000
  9       0.000000000000
 10       0.000000000000
 11       0.000000000000
 12       0.000000000000
 13      -0.000000000000
 14       0.000000000000
 15      -0.000000000000
 16       0.000000000000
 17      -0.000000000000
 18      -0.000000000000
 19      -0.000000000000
 20       0.000000000000
 21      -0.000000000000
 22       0.061729787005
 23       0.000000000000
 24       0.000000000000
 25      -0.000000000000
 26       0.000000000000
 27      -0.158947844209
 28      -0.000000000000
 29      -0.000000000000
 30       0.000000000000
 31      -0.000000000000
 32       1.085680322079
 33       0.000000000000
 34      -0.000000000000
 35       0.000000000000
 36       0.000000000000
 37      -0.000000000000
 38      -0.000000000000
 39      -0.000000000000
 40       0.000000000000
 41      -0.000000000000
 42       0.000000000000
 43      -0.000000000000
 44       0.000000000000
 45      -0.000000000000
 46      -0.000000000000
 47       0.000000000000
 48       0.000000000000
 49      -0.000000000000
 50       0.000000000000
 51       0.001070012888
 52       0.000000000000
 53      -0.000000000000
 54      -0.000000000000
 55      -0.000943662667
 56      -0.000000000000
 57       0.000000000000
 Sym=     1a
 Ene= 4.08164455767162E-01
 Spin= Alpha
 Occup= 0.000000
  1       0.000000000000
  2       0.000000000000
  3      -0.000000000000
  4       0.000000000000
  5       0.000000000000
  6      -0.000000000000
  7       0.000000000000
  8       0.000000000000
  9      -0.000000000000
 10       0.000000000000
 11       0.000000000000
 12      -0.000000000000
 13       0.000000000000
 14      -0.000000000000
 15      -0.000000000000
 16      -0.000000000000
 17       0.000000000000
 18      -0.000000000000
 19       0.000000000000
 20       0.000000000000
 21       0.060824555217
 22       0.000000000000
 23      -0.000000000000
 24      -0.000000000000
 25      -0.000000000000
 26      -0.181309226349
 27      -0.000000000000
 28       0.000000000000
 29      -0.000000000000
 30       0.000000000000
 31       1.098776999293
 32       0.000000000000
 33      -0.000000000000
 34       0.000000000000
 35      -0.000000000000
 36      -0.000000000000
 37       0.000000000000
 38      -0.000000000000
 39      -0.000000000000
 40       0.000000000000
 41      -0.000000000000
 42       0.000000000000
 43      -0.000000000000
 44      -0.000000000000
 45      -0.000000000000
 46       0.000000000000
 47      -0.000000000000
 48       0.000000000000
 49      -0.000000000000
 50       0.000349863262
 51       0.000000000000
 52       0.000000000000
 53       0.000000000000
 54      -0.000925651183
 55      -0.000000000000
 56      -0.000000000000
 57       0.000000000000
 Sym=     1a
 Ene= 4.08164455767589E-01
 Spin= Alpha
 Occup= 0.000000
  1      -0.000000000000
  2       0.000000000000
  3      -0.000000000000
  4       0.000000000000
  5      -0.000000000000
  6       0.000000000000
  7      -0.000000000000
  8       0.000000000000
  9      -0.000000000000
 10      -0.000000000000
 11      -0.000000000000
 12      -0.000000000000
 13       0.000000000000
 14       0.000000000000
 15       0.000000000000
 16      -0.000000000000
 17       0.000000000000
 18      -0.000000000000
 19       0.000000000000
 20      -0.052675609992
 21      -0.000000000000
 22      -0.000000000000
 23       0.030412277609
 24      -0.000000000000
 25       0.157018395958
 26      -0.000000000000
 27       0.000000000000
 28      -0.090654613174
 29       0.000000000000
 30      -0.951568794481
 31      -0.000000000000
 32      -0.000000000000
 33       0.549388499646
 34       0.000000000000
 35       0.000000000000
 36      -0.000000000000
 37       0.000000000000
 38      -0.000000000000
 39      -0.000000000000
 40      -0.000000000000
 41      -0.000000000000
 42      -0.000000000000
 43      -0.000000000000
 44      -0.000000000000
 45       0.000000000000
 46       0.000000000000
 47       0.000000000000
 48       0.000000000000
 49      -0.000553182388
 50      -0.000000000000
 51      -0.000000000000
 52      -0.000494781369
 53      -0.000000000000
 54      -0.000000000000
 55       0.000000000000
 56      -0.000654534228
 57       0.000000000000
 Sym=     1a
 Ene= 6.18369739041428E-01
 Spin= Alpha
 Occup= 0.000000
  1       0.000000000000
  2      -0.000000000000
  3      -0.000000000000
  4       0.000000000000
  5      -0.000000000000
  6       0.000000000000
  7      -0.000000000000
  8      -0.000000000000
  9       0.242612493683
 10       0.000000000000
 11       0.000000000000
 12       1.397601706730
 13      -0.000000000000
 14       0.000000000000
 15      -2.466186420657
 16       0.000000000000
 17      -0.000000000000
 18       1.103221948548
 19      -0.000000000000
 20       0.000000000000
 21       0.000000000000
 22       0.000000000000
 23      -0.000000000000
 24      -0.000000000000
 25      -0.000000000000
 26       0.000000000000
 27      -0.000000000000
 28       0.000000000000
 29       0.000000000000
 30       0.000000000000
 31       0.000000000000
 32      -0.000000000000
 33      -0.000000000000
 34      -0.000000000000
 35      -0.000000000000
 36      -0.000000000000
 37       0.002328468385
 38      -0.000000000000
 39       0.000000000000
 40       0.000000000000
 41      -0.003006039758
 42       0.000000000000
 43      -0.000000000000
 44      -0.006497467399
 45       0.000000000000
 46      -0.000000000000
 47      -0.000000000000
 48       0.008388194343
 49       0.000000000000
 50       0.000000000000
 51       0.000000000000
 52       0.000000000000
 53       0.000000000000
 54       0.000000000000
 55      -0.000000000000
 56      -0.000000000000
 57       0.000000000000
 Sym=     1a
 Ene= 6.52780982315858E-01
 Spin= Alpha
 Occup= 0.000000
  1      -0.000000000000
  2       0.000000000000
  3      -0.000000000000
  4       0.000000000000
  5      -0.000000000000
  6       0.000000000000
  7       0.000000000000
  8       0.256031024940
  9       0.000000000000
 10       0.000000000000
 11       1.482353878828
 12      -0.000000000000
 13      -0.000000000000
 14      -2.370665679009
 15       0.000000000000
 16       0.000000000000
 17       1.029644580815
 18      -0.000000000000
 19       0.000000000000
 20      -0.000000000000
 21       0.000000000000
 22      -0.000000000000
 23      -0.000000000000
 24       0.000000000000
 25       0.000000000000
 26       0.000000000000
 27       0.000000000000
 28       0.000000000000
 29       0.000000000000
 30       0.000000000000
 31      -0.000000000000
 32      -0.000000000000
 33      -0.000000000000
 34      -0.000000000000
 35      -0.000000000000
 36       0.000795079953
 37       0.000000000000
 38      -0.000000000000
 39       0.000000000000
 40      -0.003079331416
 41      -0.000000000000
 42      -0.000000000000
 43      -0.002390867564
 44       0.000000000000
 45       0.000000000000
 46      -0.000000000000
 47       0.009259790257
 48       0.000000000000
 49      -0.000000000000
 50       0.000000000000
 51       0.000000000000
 52       0.000000000000
 53      -0.000000000000
 54       0.000000000000
 55       0.000000000000
 56      -0.000000000000
 57       0.000000000000
 Sym=     1a
 Ene= 6.52780982315858E-01
 Spin= Alpha
 Occup= 0.000000
  1      -0.000000000000
  2       0.000000000000
  3      -0.000000000000
  4       0.000000000000
  5      -0.000000000000
  6      -0.000000000000
  7       0.000000000000
  8      -0.000000000000
  9      -0.000000000000
 10      -0.256031024940
 11       0.000000000000
 12       0.000000000000
 13      -1.482353878828
 14      -0.000000000000
 15      -0.000000000000
 16       2.370665679009
 17      -0.000000000000
 18       0.000000000000
 19      -1.029644580815
 20      -0.000000000000
 21      -0.000000000000
 22       0.000000000000
 23      -0.000000000000
 24      -0.000000000000
 25       0.000000000000
 26      -0.000000000000
 27       0.000000000000
 28       0.000000000000
 29       0.000000000000
 30       0.000000000000
 31       0.000000000000
 32      -0.000000000000
 33      -0.000000000000
 34      -0.000000000000
 35      -0.001947540189
 36       0.000000000000
 37      -0.000000000000
 38      -0.002514263573
 39      -0.000000000000
 40       0.000000000000
 41      -0.000000000000
 42       0.005856405573
 43      -0.000000000000
 44       0.000000000000
 45       0.007560587085
 46       0.000000000000
 47      -0.000000000000
 48       0.000000000000
 49      -0.000000000000
 50       0.000000000000
 51       0.000000000000
 52       0.000000000000
 53      -0.000000000000
 54       0.000000000000
 55       0.000000000000
 56      -0.000000000000
 57       0.000000000000
 Sym=     1a
 Ene= 1.13948708950843E+00
 Spin= Alpha
 Occup= 0.000000
  1      -0.114319413677
  2      -0.078368272226
  3       0.044565277897
  4      -0.809301624191
  5       3.548424692252
  6      -4.034328921807
  7       1.524566195856
  8      -0.000000000000
  9       0.000000000000
 10       0.000000000000
 11      -0.000000000000
 12      -0.000000000000
 13       0.000000000000
 14       0.000000000000
 15       0.000000000000
 16      -0.000000000000
 17      -0.000000000000
 18      -0.000000000000
 19       0.000000000000
 20       0.002793566095
 21       0.000000000000
 22      -0.000000000000
 23       0.004838598411
 24      -0.000000000000
 25      -0.028294231401
 26       0.000000000000
 27       0.000000000000
 28      -0.049007046348
 29       0.000000000000
 30       0.017506561852
 31       0.000000000000
 32      -0.000000000000
 33       0.030322254593
 34       0.000000000000
 35       0.000000000000
 36       0.000000000000
 37      -0.000000000000
 38      -0.000000000000
 39       0.000000000000
 40       0.000000000000
 41       0.000000000000
 42      -0.000000000000
 43      -0.000000000000
 44      -0.000000000000
 45       0.000000000000
 46      -0.000000000000
 47      -0.000000000000
 48       0.000000000000
 49      -0.000091656770
 50       0.000000000000
 51       0.000000000000
 52      -0.000136633846
 53       0.000000000000
 54      -0.000000000000
 55      -0.000000000000
 56       0.000180749588
 57       0.000000000000
 Sym=     1a
 Ene= 1.21874231904777E+00
 Spin= Alpha
 Occup= 0.000000
  1       0.000000000000
  2      -0.000000000000
  3       0.000000000000
  4      -0.000000000000
  5       0.000000000000
  6      -0.000000000000
  7      -0.000000000000
  8       0.000000000000
  9      -0.000000000000
 10       0.000000000000
 11       0.000000000000
 12       0.000000000000
 13       0.000000000000
 14      -0.000000000000
 15      -0.000000000000
 16      -0.000000000000
 17       0.000000000000
 18       0.000000000000
 19       0.000000000000
 20      -0.000000000000
 21      -0.000000000000
 22      -0.000000000000
 23      -0.000000000000
 24      -0.000000000000
 25       0.000000000000
 26       0.000000000000
 27       0.000000000000
 28       0.000000000000
 29       0.000000000000
 30      -0.000000000000
 31      -0.000000000000
 32      -0.000000000000
 33      -0.000000000000
 34       0.000000000000
 35       0.103020013046
 36       0.000000000000
 37       0.000000000000
 38      -0.079798958971
 39       0.000000000000
 40       0.000000000000
 41       0.000000000000
 42      -0.843295754399
 43       0.000000000000
 44      -0.000000000000
 45       0.653214082543
 46       0.000000000000
 47      -0.000000000000
 48      -0.000000000000
 49       0.000000000000
 50      -0.000000000000
 51      -0.000000000000
 52      -0.000000000000
 53       0.000000000000
 54      -0.000000000000
 55      -0.000000000000
 56      -0.000000000000