
                                 *****************
                                 * O   R   C   A *
                                 *****************

           --- An Ab Initio, DFT and Semiempirical electronic structure package ---

                  #######################################################
                  #                        -***-                        #
                  #  Department of molecular theory and spectroscopy    #
                  #              Directorship: Frank Neese              #
                  # Max Planck Institute for Chemical Energy Conversion #
                  #                  D-45470 Muelheim/Ruhr              #
                  #                       Germany                       #
                  #                                                     #
                  #                  All rights reserved                #
                  #                        -***-                        #
                  #######################################################


                         Program Version 4.0.1.2 - RELEASE -


 With contributions from (in alphabetic order):
   Daniel Aravena         : Magnetic Properties
   Michael Atanasov       : Ab Initio Ligand Field Theory
   Ute Becker             : Parallelization
   Martin Brehm           : Molecular dynamics
   Dmytro Bykov           : SCF Hessian
   Vijay G. Chilkuri      : MRCI spin determinant printing
   Dipayan Datta          : RHF DLPNO-CCSD density
   Achintya Kumar Dutta   : EOM-CC, STEOM-CC
   Dmitry Ganyushin       : Spin-Orbit,Spin-Spin,Magnetic field MRCI
   Yang Guo               : DLPNO-NEVPT2, CIM, IAO-localization
   Andreas Hansen         : Spin unrestricted coupled pair/coupled cluster methods
   Lee Huntington         : MR-EOM, pCC
   Robert Izsak           : Overlap fitted RIJCOSX, COSX-SCS-MP3, EOM
   Christian Kollmar      : KDIIS, OOCD, Brueckner-CCSD(T), CCSD density
   Simone Kossmann        : Meta GGA functionals, TD-DFT gradient, OOMP2, MP2 Hessian
   Martin Krupicka        : AUTO-CI
   Dagmar Lenk            : GEPOL surface
   Dimitrios Liakos       : Extrapolation schemes; parallel MDCI
   Dimitrios Manganas     : ROCIS; embedding schemes
   Dimitrios Pantazis     : SARC Basis sets
   Taras Petrenko         : DFT Hessian,TD-DFT gradient, ASA, ECA, R-Raman, ABS, FL, XAS/XES, NRVS
   Peter Pinski           : DLPNO-MP2
   Christoph Reimann      : Effective Core Potentials
   Marius Retegan         : Local ZFS, SOC
   Christoph Riplinger    : Optimizer, TS searches, QM/MM, DLPNO-CCSD(T), (RO)-DLPNO pert. Triples
   Tobias Risthaus        : Range-separated hybrids, TD-DFT gradient, RPA, STAB
   Michael Roemelt        : Restricted open shell CIS
   Masaaki Saitow         : Open-shell DLPNO
   Barbara Sandhoefer     : DKH picture change effects
   Kantharuban Sivalingam : CASSCF convergence, NEVPT2, FIC-MRCI
   Georgi Stoychev        : AutoAux
   Boris Wezisla          : Elementary symmetry handling
   Frank Wennmohs         : Technical directorship


 We gratefully acknowledge several colleagues who have allowed us to
 interface, adapt or use parts of their codes:
   Stefan Grimme, W. Hujo, H. Kruse,             : VdW corrections, initial TS optimization,
                  C. Bannwarth                     DFT functionals, gCP, sTDA/sTD-DF
   Ed Valeev                                     : LibInt (2-el integral package), F12 methods
   Garnet Chan, S. Sharma, J. Yang, R. Olivares  : DMRG
   Ulf Ekstrom                                   : XCFun DFT Library
   Mihaly Kallay                                 : mrcc  (arbitrary order and MRCC methods)
   Andreas Klamt, Michael Diedenhofen            : otool_cosmo (COSMO solvation model)
   Jiri Pittner, Ondrej Demel                    : Mk-CCSD
   Frank Weinhold                                : gennbo (NPA and NBO analysis)
   Christopher J. Cramer and Donald G. Truhlar   : smd solvation model


 Your calculation uses the libint2 library for the computation of 2-el integrals
 For citations please refer to: http://libint.valeyev.net

 This ORCA versions uses:
   CBLAS   interface :  Fast vector & matrix operations
   LAPACKE interface :  Fast linear algebra routines
   SCALAPACK package :  Parallel linear algebra routines




*****************************************
The coordinations will be read from file: ../../../../chem_database/ozone.xyz
*****************************************


Your calculation utilizes the basis: def2-QZVP
   F. Weigend and R. Ahlrichs, Phys. Chem. Chem. Phys. 7, 3297 (2005).

================================================================================
                                        WARNINGS
                       Please study these warnings very carefully!
================================================================================

Warning: TCutStore was < 0. Adjusted to Thresh (uncritical)

INFO   : the flag for use of LIBINT has been found!



*****************************************
The coordinations will be read from file: ../../../../chem_database/ozone.xyz
*****************************************


Your calculation utilizes the basis: def2-QZVP
   F. Weigend and R. Ahlrichs, Phys. Chem. Chem. Phys. 7, 3297 (2005).

================================================================================
                                        WARNINGS
                       Please study these warnings very carefully!
================================================================================


INFO   : the flag for use of LIBINT has been found!

================================================================================
                                       INPUT FILE
================================================================================
NAME = mol.inp
|  1> # ================================================================
|  2> # Orca input file
|  3> # ================================================================
|  4> ! UKS B3LYP def2-QZVP VeryTightSCF
|  5> 
|  6> ! PAL4
|  7> 
|  8> %scf
|  9>   STABPerform true
| 10> end
| 11> 
| 12> * xyzfile 0 1 ../../../../chem_database/ozone.xyz
| 13> 
| 14> $new_job
| 15> ! UKS B3LYP def2-QZVP VeryTightSCF
| 16> 
| 17> %scf
| 18>   STABPerform true
| 19> end
| 20> 
| 21> 
| 22> * xyzfile 0 1 ../../../../chem_database/ozone.xyz
| 23> 
| 24>                          ****END OF INPUT****
================================================================================


                 $$$$$$$$$$$$$$$$$$$$$$$$$$$$$$$$$$$$$$$$$$$$$$ 
                 $ THERE ARE  2 JOBS TO BE PROCESSED THIS RUN $
                 $$$$$$$$$$$$$$$$$$$$$$$$$$$$$$$$$$$$$$$$$$$$$$ 




                 $$$$$$$$$$$$$$$$  JOB NUMBER  1 $$$$$$$$$$$$$$


                       ****************************
                       * Single Point Calculation *
                       ****************************

---------------------------------
CARTESIAN COORDINATES (ANGSTROEM)
---------------------------------
  O      0.000000    0.000000    0.000000
  O      0.000000    0.000000    1.268814
  O      1.129330    0.000000   -0.578362

----------------------------
CARTESIAN COORDINATES (A.U.)
----------------------------
  NO LB      ZA    FRAG     MASS         X           Y           Z
   0 O     8.0000    0    15.999    0.000000    0.000000    0.000000
   1 O     8.0000    0    15.999    0.000000    0.000000    2.397711
   2 O     8.0000    0    15.999    2.134124    0.000000   -1.092946

--------------------------------
INTERNAL COORDINATES (ANGSTROEM)
--------------------------------
 O      0   0   0     0.000000000000     0.00000000     0.00000000
 O      1   0   0     1.268813890000     0.00000000     0.00000000
 O      1   2   0     1.268813890000   117.11828947     0.00000000

---------------------------
INTERNAL COORDINATES (A.U.)
---------------------------
 O      0   0   0     0.000000000000     0.00000000     0.00000000
 O      1   0   0     2.397710767015     0.00000000     0.00000000
 O      1   2   0     2.397710767015   117.11828947     0.00000000

---------------------
BASIS SET INFORMATION
---------------------
There are 1 groups of distinct atoms

 Group   1 Type O   : 15s8p3d2f1g contracted to 7s4p3d2f1g pattern {8211111/5111/111/11/1}

Atom   0O    basis set group =>   1
Atom   1O    basis set group =>   1
Atom   2O    basis set group =>   1


           ************************************************************
           *        Program running with 4 parallel MPI-processes     *
           *              working on a common directory               *
           ************************************************************
------------------------------------------------------------------------------
                           ORCA GTO INTEGRAL CALCULATION
------------------------------------------------------------------------------

                         BASIS SET STATISTICS AND STARTUP INFO

 # of primitive gaussian shells          ...   87
 # of primitive gaussian functions       ...  231
 # of contracted shells                  ...   51
 # of contracted basis functions         ...  171
 Highest angular momentum                ...    4
 Maximum contraction depth               ...    8
 Integral package used                   ... LIBINT
 Integral threshhold            Thresh   ...  1.000e-12
 Primitive cut-off              TCut     ...  1.000e-14


------------------------------ INTEGRAL EVALUATION ----------------------------


 * One electron integrals 
 Pre-screening matrix                    ... done
 Shell pair data                         ... done (   0.000 sec)



           ************************************************************
           *        Program running with 4 parallel MPI-processes     *
           *              working on a common directory               *
           ************************************************************
-------------------------------------------------------------------------------
                                 ORCA SCF
-------------------------------------------------------------------------------

------------
SCF SETTINGS
------------
Hamiltonian:
 Density Functional     Method          .... DFT(GTOs)
 Exchange Functional    Exchange        .... B88
   X-Alpha parameter    XAlpha          ....  0.666667
   Becke's b parameter  XBeta           ....  0.004200
 Correlation Functional Correlation     .... LYP
 LDA part of GGA corr.  LDAOpt          .... VWN-5
 Gradients option       PostSCFGGA      .... off
 Hybrid DFT is turned on
   Fraction HF Exchange ScalHFX         ....  0.200000
   Scaling of DF-GGA-X  ScalDFX         ....  0.720000
   Scaling of DF-GGA-C  ScalDFC         ....  0.810000
   Scaling of DF-LDA-C  ScalLDAC        ....  1.000000
   Perturbative correction              ....  0.000000
   NL short-range parameter             ....  4.800000


General Settings:
 Integral files         IntName         .... mol
 Hartree-Fock type      HFTyp           .... UHF
 Total Charge           Charge          ....    0
 Multiplicity           Mult            ....    1
 Number of Electrons    NEL             ....   24
 Basis Dimension        Dim             ....  171
 Nuclear Repulsion      ENuc            ....     69.0269996963 Eh

Convergence Acceleration:
 DIIS                   CNVDIIS         .... on
   Start iteration      DIISMaxIt       ....    12
   Startup error        DIISStart       ....  0.200000
   # of expansion vecs  DIISMaxEq       ....     5
   Bias factor          DIISBfac        ....   1.050
   Max. coefficient     DIISMaxC        ....  10.000
 Newton-Raphson         CNVNR           .... off
 SOSCF                  CNVSOSCF        .... off
 Level Shifting         CNVShift        .... on
   Level shift para.    LevelShift      ....    0.2500
   Turn off err/grad.   ShiftErr        ....    0.0010
 Zerner damping         CNVZerner       .... off
 Static damping         CNVDamp         .... on
   Fraction old density DampFac         ....    0.7000
   Max. Damping (<1)    DampMax         ....    0.9800
   Min. Damping (>=0)   DampMin         ....    0.0000
   Turn off err/grad.   DampErr         ....    0.1000
 Fernandez-Rico         CNVRico         .... off

SCF Procedure:
 Maximum # iterations   MaxIter         ....   125
 SCF integral mode      SCFMode         .... Direct
   Integral package                     .... LIBINT
 Reset frequeny         DirectResetFreq ....    20
 Integral Threshold     Thresh          ....  1.000e-12 Eh
 Primitive CutOff       TCut            ....  1.000e-14 Eh

Convergence Tolerance:
 Convergence Check Mode ConvCheckMode   .... Total+1el-Energy
 Convergence forced     ConvForced      .... 0
 Energy Change          TolE            ....  1.000e-09 Eh
 1-El. energy change                    ....  1.000e-06 Eh
 DIIS Error             TolErr          ....  1.000e-08


Diagonalization of the overlap matrix:
Smallest eigenvalue                        ... 5.403e-04
Time for diagonalization                   ...    0.021 sec
Threshold for overlap eigenvalues          ... 1.000e-08
Number of eigenvalues below threshold      ... 0
Time for construction of square roots      ...    0.009 sec
Total time needed                          ...    0.030 sec

-------------------
DFT GRID GENERATION
-------------------

General Integration Accuracy     IntAcc      ...  4.340
Radial Grid Type                 RadialGrid  ... Gauss-Chebyshev
Angular Grid (max. acc.)         AngularGrid ... Lebedev-110
Angular grid pruning method      GridPruning ... 3 (G Style)
Weight generation scheme         WeightScheme... Becke
Basis function cutoff            BFCut       ...    1.0000e-12
Integration weight cutoff        WCut        ...    1.0000e-14
Grids for H and He will be reduced by one unit

# of grid points (after initial pruning)     ...   5148 (   0.0 sec)
# of grid points (after weights+screening)   ...   5111 (   0.0 sec)
nearest neighbour list constructed           ...    0.0 sec
Grid point re-assignment to atoms done       ...    0.0 sec
Grid point division into batches done        ...    0.0 sec
Reduced shell lists constructed in    0.0 sec

Total number of grid points                  ...     5111
Total number of batches                      ...       81
Average number of points per batch           ...       63
Average number of grid points per atom       ...     1704
Average number of shells per batch           ...    39.18 (76.83%)
Average number of basis functions per batch  ...   143.82 (84.10%)
Average number of large shells per batch     ...    35.50 (90.60%)
Average number of large basis fcns per batch ...   130.68 (90.87%)
Maximum spatial batch extension              ...  14.32, 20.95, 12.83 au
Average spatial batch extension              ...   1.10,  1.30,  1.00 au

Time for grid setup =    0.054 sec

------------------------------
INITIAL GUESS: MODEL POTENTIAL
------------------------------
Loading Hartree-Fock densities                     ... done
Calculating cut-offs                               ... done
Setting up the integral package                    ... done
Initializing the effective Hamiltonian             ... done
Starting the Coulomb interaction                   ... done (   0.0 sec)
Reading the grid                                   ... done
Mapping shells                                     ... done
Starting the XC term evaluation                    ... done (   0.0 sec)
  promolecular density results
     # of electrons  =     24.000021442
     EX              =    -24.499013439
     EC              =     -0.880004109
     EX+EC           =    -25.379017548
Transforming the Hamiltonian                       ... done (   0.0 sec)
Diagonalizing the Hamiltonian                      ... done (   0.0 sec)
Back transforming the eigenvectors                 ... done (   0.0 sec)
Now organizing SCF variables                       ... done
                      ------------------
                      INITIAL GUESS DONE (   0.2 sec)
                      ------------------
--------------
SCF ITERATIONS
--------------
ITER       Energy         Delta-E        Max-DP      RMS-DP      [F,P]     Damp
               ***  Starting incremental Fock matrix formation  ***
  0   -225.2993877715   0.000000000000 0.01741219  0.00048339  0.2933672 0.7000
  1   -225.3704453218  -0.071057550269 0.00984862  0.00023369  0.0797428 0.7000
                               ***Turning on DIIS***
  2   -225.3859997063  -0.015554384513 0.01019469  0.00023053  0.0542981 0.0000
  3   -225.4321865844  -0.046186878130 0.00748937  0.00017668  0.0247004 0.0000
  4   -225.4319366472   0.000249937249 0.00234103  0.00005682  0.0425656 0.0000
  5   -225.4336581652  -0.001721518064 0.00089345  0.00001938  0.0116085 0.0000
  6   -225.4338118515  -0.000153686264 0.00017461  0.00000543  0.0024053 0.0000
  7   -225.4338201703  -0.000008318832 0.00007964  0.00000237  0.0004833 0.0000
  8   -225.4338206237  -0.000000453376 0.00003398  0.00000090  0.0001636 0.0000
  9   -225.4338205754   0.000000048352 0.00003081  0.00000076  0.0002394 0.0000
 10   -225.4338206494  -0.000000074077 0.00001254  0.00000027  0.0000796 0.0000
 11   -225.4338206578  -0.000000008367 0.00000246  0.00000005  0.0000171 0.0000
 12   -225.4338206582  -0.000000000379 0.00000021  0.00000001  0.0000023 0.0000
 13   -225.4338206582  -0.000000000002 0.00000009  0.00000000  0.0000003 0.0000
 14   -225.4338206582  -0.000000000009 0.00000005  0.00000000  0.0000005 0.0000
                 **** Energy Check signals convergence ****

               *****************************************************
               *                     SUCCESS                       *
               *           SCF CONVERGED AFTER  15 CYCLES          *
               *****************************************************


------------------------------------------------------------------------------
                          SCF STABILITY ANALYSIS                              
------------------------------------------------------------------------------


---------------
TD-DFT XC SETUP
---------------

DFT calculation                         ... on
Name of the grid file                   ... mol.grid.tmp
Exchange functional (SCF)               ... B88
Exchange functional (TD-DFT)            ... B88
   X-Alpha parameter    XAlpha (SCF)    ...  0.666667
   X-Alpha parameter    XAlpha (TD-DFT) ...  0.666667
   Becke's b parameter  XBeta (SCF)     ...  0.004200
   Becke's b parameter  XBeta (TD-DFT)  ...  0.004200
Correlation functional (SCF)            ... LYP
Correlation functional (TD-DFT)         ... LYP
 LDA part of GGA corr.  LDAOpt (SCF)    ... VWN-5
 LDA part of GGA corr.  LDAOpt (TD-DFT) ... VWN-5
Hybrid DFT                              ... on
   Exchange mixing (SCF)                ...  0.200
   Exchange mixing (TD-DFT)             ...  0.200
   GGA exch. scaling(SCF)               ...  0.720
   GGA exch. scaling (TD-DFT)           ...  0.720
   GGA corr. scaling (SCF)              ...  0.810
   GGA corr. scaling (TD-DFT)           ...  0.810

Electron density on the grid   ... found on disk
Building xc-kernel on the grid ... done
                    *** TD-DFT CALCULATION INITIALIZED ***

                       ****Iteration    0****

   Memory handling for direct AO based CIS:
   Memory per vector needed      ...     1 MB
   Memory needed                 ...     8 MB
   Memory available              ...  1024 MB
   Number of vectors per batch   ...   764
   Number of batches             ...     1
   Time for densities:     0.007
   Time for XC-Integration:     0.235
   Using LibInt in JK Direct
   Time for J+K (Direct):    11.369
   Time for Sigma-Completion:     0.017
   Lowest Energy          :    -0.014647419880
   Maximum Energy change  :     0.044151078943 (vector 2)
   Maximum residual norm  :     0.026043989102

                       ****Iteration    1****
   Time for densities:     0.004
   Time for XC-Integration:     0.123
   Using LibInt in JK Direct
   Time for J+K (Direct):     5.634
   Time for Sigma-Completion:     0.011
   Lowest Energy          :    -0.029450233359
   Maximum Energy change  :     0.014802813479 (vector 0)
   Maximum residual norm  :     0.000209878746

                       ****Iteration    2****
   Time for densities:     0.004
   Time for XC-Integration:     0.157
   Using LibInt in JK Direct
   Time for J+K (Direct):     6.990
   Time for Sigma-Completion:     0.010
   Lowest Energy          :    -0.029571100637
   Maximum Energy change  :     0.000206753843 (vector 2)
   Maximum residual norm  :     0.000011604680

      *** CONVERGENCE OF RESIDUAL NORM REACHED ***

----------------------------- 
SCF STABILITY ANALYSIS RESULT 
----------------------------- 

UHF/UKS->UHF/UKS - singlet - internal

   Root    Eigenvalue (au) 
     0      -0.029571 
     1       0.022918 
     2       0.033759 

Stability Analysis indicates an UNSTABLE HF/KS wave function with one negative eigenvalue.

Since this is UHF/UKS, we will restart the SCF using a new guess based on the eigenvector 
associated with the negative eigenvalue. Because there is no guarantee that the restart   
will result in a stable solution, the user should check the stability of the resulting    
wave function in a separate calculation using the MOREAD guess feature.

Obtain new guess               ... done 

Total time for performing the stability analysis:    24.590sec

--------------------------
SCF ITERATIONS (restarted)
--------------------------
ITER       Energy         Delta-E        Max-DP      RMS-DP      [F,P]     Damp
               ***  Starting incremental Fock matrix formation  ***
  0   -225.4358957227   0.000000000000 0.00110280  0.00002903  0.0229081 0.7000
  1   -225.4361628501  -0.000267127333 0.00056037  0.00001736  0.0082811 0.7000
                               ***Turning on DIIS***
  2   -225.4362781421  -0.000115292024 0.00105986  0.00003574  0.0046916 0.0000
  3   -225.4366111440  -0.000333001926 0.00045292  0.00000787  0.0015397 0.0000
  4   -225.4366203820  -0.000009237999 0.00014070  0.00000388  0.0010912 0.0000
  5   -225.4366224141  -0.000002032087 0.00018321  0.00000429  0.0003611 0.0000
  6   -225.4366236535  -0.000001239415 0.00007725  0.00000182  0.0003478 0.0000
  7   -225.4366241696  -0.000000516047 0.00009498  0.00000236  0.0001528 0.0000
  8   -225.4366246267  -0.000000457154 0.00008272  0.00000212  0.0001287 0.0000
  9   -225.4366249359  -0.000000309179 0.00014157  0.00000360  0.0000841 0.0000
 10   -225.4366252216  -0.000000285729 0.00004847  0.00000115  0.0000324 0.0000
 11   -225.4366252484  -0.000000026794 0.00001960  0.00000043  0.0000297 0.0000
 12   -225.4366252533  -0.000000004885 0.00000223  0.00000005  0.0000064 0.0000
 13   -225.4366252534  -0.000000000142 0.00000255  0.00000006  0.0000023 0.0000
 14   -225.4366252535  -0.000000000062 0.00000015  0.00000000  0.0000003 0.0000
                 **** Energy Check signals convergence ****

               *****************************************************
               *                     SUCCESS                       *
               *           SCF CONVERGED AFTER  15 CYCLES          *
               *****************************************************

Setting up the final grid:

General Integration Accuracy     IntAcc      ...  4.670
Radial Grid Type                 RadialGrid  ... Gauss-Chebyshev
Angular Grid (max. acc.)         AngularGrid ... Lebedev-302
Angular grid pruning method      GridPruning ... 3 (G Style)
Weight generation scheme         WeightScheme... Becke
Basis function cutoff            BFCut       ...    1.0000e-12
Integration weight cutoff        WCut        ...    1.0000e-14
Grids for H and He will be reduced by one unit

# of grid points (after initial pruning)     ...  18636 (   0.0 sec)
# of grid points (after weights+screening)   ...  18484 (   0.0 sec)
nearest neighbour list constructed           ...    0.0 sec
Grid point re-assignment to atoms done       ...    0.0 sec
Grid point division into batches done        ...    0.1 sec
Reduced shell lists constructed in    0.1 sec

Total number of grid points                  ...    18484
Total number of batches                      ...      290
Average number of points per batch           ...       63
Average number of grid points per atom       ...     6161
Average number of shells per batch           ...    36.01 (70.61%)
Average number of basis functions per batch  ...   131.64 (76.98%)
Average number of large shells per batch     ...    32.03 (88.93%)
Average number of large basis fcns per batch ...   118.62 (90.11%)
Maximum spatial batch extension              ...  11.51, 16.88, 12.18 au
Average spatial batch extension              ...   0.72,  0.80,  0.72 au

Final grid set up in    0.1 sec
Final integration                            ... done (   0.1 sec)
Change in XC energy                          ...     0.000043164
Integrated number of electrons               ...    23.999992797
Previous integrated no of electrons          ...    24.000264061

----------------
TOTAL SCF ENERGY
----------------

Total Energy       :         -225.43658209 Eh           -6134.44127 eV

Components:
Nuclear Repulsion  :           69.02699970 Eh            1878.32015 eV
Electronic Energy  :         -294.46358179 Eh           -8012.76142 eV
One Electron Energy:         -446.10724254 Eh          -12139.19521 eV
Two Electron Energy:          151.64366075 Eh            4126.43379 eV

Virial components:
Potential Energy   :         -450.14959229 Eh          -12249.19314 eV
Kinetic Energy     :          224.71301020 Eh            6114.75188 eV
Virial Ratio       :            2.00321998


DFT components:
N(Alpha)           :       11.999996454441 electrons
N(Beta)            :       11.999996342180 electrons
N(Total)           :       23.999992796621 electrons
E(X)               :      -19.532483965827 Eh       
E(C)               :       -1.028111667897 Eh       
E(XC)              :      -20.560595633723 Eh       

---------------
SCF CONVERGENCE
---------------

  Last Energy change         ...    3.1548e-12  Tolerance :   1.0000e-09
  Last MAX-Density change    ...    4.2673e-08  Tolerance :   1.0000e-08
  Last RMS-Density change    ...    1.6818e-09  Tolerance :   1.0000e-09
  Last DIIS Error            ...    4.8302e-08  Tolerance :   1.0000e-08

             **** THE GBW FILE WAS UPDATED (mol.gbw) ****
             **** DENSITY FILE WAS UPDATED (mol.scfp.tmp) ****
             **** ENERGY FILE WAS UPDATED (mol.en.tmp) ****

     --------------------------------------------------------------------
                                      WARNING
     A stability analysis of the first UHF/UKS SCF solution was performed
     and an instability detected. The result was used as a guess for
     a second SCF, which has converged. There is no guarantee that the
     current solution is stable - it is up to you to rerun the stability
     analysis using the now stored solution as a guess and verify.
     --------------------------------------------------------------------

----------------------
UHF SPIN CONTAMINATION
----------------------

Warning: in a DFT calculation there is little theoretical justification to 
         calculate <S**2> as in Hartree-Fock theory. We will do it anyways
         but you should keep in mind that the values have only limited relevance

Expectation value of <S**2>     :     0.341897
Ideal value S*(S+1) for S=0.0   :     0.000000
Deviation                       :     0.341897

----------------
ORBITAL ENERGIES
----------------
                 SPIN UP ORBITALS
  NO   OCC          E(Eh)            E(eV) 
   0   1.0000     -19.411929      -528.2254 
   1   1.0000     -19.260457      -524.1037 
   2   1.0000     -19.246401      -523.7212 
   3   1.0000      -1.360563       -37.0228 
   4   1.0000      -1.097366       -29.8609 
   5   1.0000      -0.786245       -21.3948 
   6   1.0000      -0.600278       -16.3344 
   7   1.0000      -0.598149       -16.2765 
   8   1.0000      -0.589038       -16.0285 
   9   1.0000      -0.382888       -10.4189 
  10   1.0000      -0.359350        -9.7784 
  11   1.0000      -0.345118        -9.3911 
  12   0.0000      -0.180578        -4.9138 
  13   0.0000       0.057825         1.5735 
  14   0.0000       0.119825         3.2606 
  15   0.0000       0.197521         5.3748 
  16   0.0000       0.205013         5.5787 
  17   0.0000       0.227196         6.1823 
  18   0.0000       0.260447         7.0871 
  19   0.0000       0.284700         7.7471 
  20   0.0000       0.288681         7.8554 
  21   0.0000       0.292211         7.9515 
  22   0.0000       0.326766         8.8917 
  23   0.0000       0.373750        10.1703 
  24   0.0000       0.377306        10.2670 
  25   0.0000       0.609752        16.5922 
  26   0.0000       0.718221        19.5438 
  27   0.0000       0.796729        21.6801 
  28   0.0000       0.892463        24.2851 
  29   0.0000       0.892666        24.2907 
  30   0.0000       1.035261        28.1709 
  31   0.0000       1.066426        29.0189 
  32   0.0000       1.135472        30.8978 
  33   0.0000       1.140084        31.0233 
  34   0.0000       1.196562        32.5601 
  35   0.0000       1.214926        33.0598 
  36   0.0000       1.227183        33.3934 
  37   0.0000       1.263957        34.3940 
  38   0.0000       1.268179        34.5089 
  39   0.0000       1.306494        35.5515 
  40   0.0000       1.308889        35.6167 
  41   0.0000       1.324008        36.0281 
  42   0.0000       1.334523        36.3142 
  43   0.0000       1.595543        43.4169 
  44   0.0000       1.619490        44.0685 
  45   0.0000       1.685745        45.8715 
  46   0.0000       1.698812        46.2270 
  47   0.0000       1.744235        47.4631 
  48   0.0000       1.865565        50.7646 
  49   0.0000       1.881162        51.1890 
  50   0.0000       1.962158        53.3930 
  51   0.0000       2.622194        71.3535 
  52   0.0000       2.690059        73.2002 
  53   0.0000       2.712166        73.8018 
  54   0.0000       2.809176        76.4416 
  55   0.0000       2.924725        79.5858 
  56   0.0000       2.974100        80.9294 
  57   0.0000       3.058859        83.2358 
  58   0.0000       3.077359        83.7392 
  59   0.0000       3.082209        83.8712 
  60   0.0000       3.105782        84.5126 
  61   0.0000       3.140624        85.4607 
  62   0.0000       3.289511        89.5121 
  63   0.0000       3.323702        90.4425 
  64   0.0000       3.339395        90.8696 
  65   0.0000       3.444644        93.7335 
  66   0.0000       3.581171        97.4486 
  67   0.0000       3.617031        98.4244 
  68   0.0000       3.654455        99.4428 
  69   0.0000       3.675155       100.0061 
  70   0.0000       3.763674       102.4148 
  71   0.0000       3.767048       102.5066 
  72   0.0000       3.814613       103.8009 
  73   0.0000       3.873759       105.4103 
  74   0.0000       3.907142       106.3187 
  75   0.0000       3.920419       106.6800 
  76   0.0000       3.987931       108.5171 
  77   0.0000       4.050935       110.2315 
  78   0.0000       4.075466       110.8991 
  79   0.0000       4.115956       112.0009 
  80   0.0000       4.182297       113.8061 
  81   0.0000       4.215156       114.7002 
  82   0.0000       4.256025       115.8123 
  83   0.0000       4.441119       120.8490 
  84   0.0000       4.441683       120.8643 
  85   0.0000       4.541677       123.5853 
  86   0.0000       4.600927       125.1976 
  87   0.0000       4.613653       125.5439 
  88   0.0000       4.770549       129.8132 
  89   0.0000       4.776848       129.9847 
  90   0.0000       4.820347       131.1683 
  91   0.0000       4.896416       133.2382 
  92   0.0000       5.079170       138.2112 
  93   0.0000       5.169226       140.6618 
  94   0.0000       5.170960       140.7090 
  95   0.0000       5.290327       143.9571 
  96   0.0000       5.725963       155.8114 
  97   0.0000       7.221940       196.5190 
  98   0.0000       7.335677       199.6139 
  99   0.0000       7.937274       215.9842 
 100   0.0000       8.064784       219.4539 
 101   0.0000       8.263312       224.8562 
 102   0.0000       8.266994       224.9563 
 103   0.0000       8.329829       226.6662 
 104   0.0000       8.367180       227.6826 
 105   0.0000       8.370953       227.7852 
 106   0.0000       8.528839       232.0815 
 107   0.0000       8.613282       234.3793 
 108   0.0000       8.766452       238.5473 
 109   0.0000       8.769367       238.6266 
 110   0.0000       8.794941       239.3225 
 111   0.0000       8.806381       239.6338 
 112   0.0000       8.852501       240.8888 
 113   0.0000       8.867744       241.3036 
 114   0.0000       8.951171       243.5737 
 115   0.0000       9.068822       246.7752 
 116   0.0000       9.365873       254.8584 
 117   0.0000       9.503089       258.5922 
 118   0.0000       9.590576       260.9728 
 119   0.0000      10.091764       274.6109 
 120   0.0000      10.298479       280.2359 
 121   0.0000      10.307892       280.4920 
 122   0.0000      10.357662       281.8463 
 123   0.0000      10.679290       290.5983 
 124   0.0000      10.751738       292.5697 
 125   0.0000      10.752762       292.5975 
 126   0.0000      10.813492       294.2501 
 127   0.0000      10.838513       294.9309 
 128   0.0000      10.843624       295.0700 
 129   0.0000      10.861993       295.5698 
 130   0.0000      10.889880       296.3287 
 131   0.0000      10.900792       296.6256 
 132   0.0000      11.044925       300.5477 
 133   0.0000      11.045289       300.5576 
 134   0.0000      11.205015       304.9040 
 135   0.0000      11.261533       306.4419 
 136   0.0000      11.331162       308.3366 
 137   0.0000      11.335447       308.4532 
 138   0.0000      11.348600       308.8111 
 139   0.0000      11.381210       309.6985 
 140   0.0000      11.410482       310.4950 
 141   0.0000      11.412219       310.5423 
 142   0.0000      11.449043       311.5443 
 143   0.0000      11.548716       314.2565 
 144   0.0000      11.606019       315.8158 
 145   0.0000      11.650158       317.0169 
 146   0.0000      11.715769       318.8023 
 147   0.0000      11.791874       320.8732 
 148   0.0000      11.795418       320.9696 
 149   0.0000      11.828982       321.8830 
 150   0.0000      11.838969       322.1547 
 151   0.0000      11.894315       323.6608 
 152   0.0000      11.979823       325.9876 
 153   0.0000      11.989739       326.2574 
 154   0.0000      12.176626       331.3428 
 155   0.0000      12.239645       333.0577 
 156   0.0000      13.174236       358.4892 
 157   0.0000      13.294150       361.7522 
 158   0.0000      13.349542       363.2595 
 159   0.0000      13.455348       366.1386 
 160   0.0000      13.535923       368.3312 
 161   0.0000      13.682324       372.3150 
 162   0.0000      14.253102       387.8466 
 163   0.0000      14.968241       407.3065 
 164   0.0000      15.053040       409.6140 
 165   0.0000      47.137962      1282.6892 
 166   0.0000      47.623932      1295.9131 
 167   0.0000      47.848028      1302.0110 
 168   0.0000     252.040141      6858.3609 
 169   0.0000     252.594371      6873.4423 
 170   0.0000     252.861970      6880.7240 

                 SPIN DOWN ORBITALS
  NO   OCC          E(Eh)            E(eV) 
   0   1.0000     -19.411930      -528.2255 
   1   1.0000     -19.260484      -524.1044 
   2   1.0000     -19.246372      -523.7204 
   3   1.0000      -1.360563       -37.0228 
   4   1.0000      -1.097367       -29.8609 
   5   1.0000      -0.786246       -21.3948 
   6   1.0000      -0.600280       -16.3344 
   7   1.0000      -0.598153       -16.2766 
   8   1.0000      -0.589034       -16.0284 
   9   1.0000      -0.382881       -10.4187 
  10   1.0000      -0.359340        -9.7781 
  11   1.0000      -0.345130        -9.3915 
  12   0.0000      -0.180584        -4.9139 
  13   0.0000       0.057824         1.5735 
  14   0.0000       0.119828         3.2607 
  15   0.0000       0.197499         5.3742 
  16   0.0000       0.204932         5.5765 
  17   0.0000       0.227194         6.1823 
  18   0.0000       0.260442         7.0870 
  19   0.0000       0.284746         7.7483 
  20   0.0000       0.288640         7.8543 
  21   0.0000       0.292453         7.9581 
  22   0.0000       0.326746         8.8912 
  23   0.0000       0.373670        10.1681 
  24   0.0000       0.377392        10.2694 
  25   0.0000       0.609773        16.5928 
  26   0.0000       0.718255        19.5447 
  27   0.0000       0.796746        21.6806 
  28   0.0000       0.892465        24.2852 
  29   0.0000       0.892667        24.2907 
  30   0.0000       1.035256        28.1707 
  31   0.0000       1.066384        29.0178 
  32   0.0000       1.135621        30.9018 
  33   0.0000       1.139951        31.0196 
  34   0.0000       1.196565        32.5602 
  35   0.0000       1.214929        33.0599 
  36   0.0000       1.227132        33.3920 
  37   0.0000       1.264021        34.3958 
  38   0.0000       1.268138        34.5078 
  39   0.0000       1.306614        35.5548 
  40   0.0000       1.308721        35.6121 
  41   0.0000       1.324157        36.0321 
  42   0.0000       1.334413        36.3112 
  43   0.0000       1.595536        43.4167 
  44   0.0000       1.619521        44.0694 
  45   0.0000       1.685523        45.8654 
  46   0.0000       1.698988        46.2318 
  47   0.0000       1.744243        47.4633 
  48   0.0000       1.865526        50.7635 
  49   0.0000       1.881225        51.1907 
  50   0.0000       1.962136        53.3924 
  51   0.0000       2.622250        71.3550 
  52   0.0000       2.690062        73.2003 
  53   0.0000       2.712185        73.8023 
  54   0.0000       2.809168        76.4413 
  55   0.0000       2.924728        79.5859 
  56   0.0000       2.974113        80.9297 
  57   0.0000       3.059155        83.2438 
  58   0.0000       3.077120        83.7327 
  59   0.0000       3.082234        83.8719 
  60   0.0000       3.105769        84.5123 
  61   0.0000       3.140532        85.4582 
  62   0.0000       3.289485        89.5114 
  63   0.0000       3.323667        90.4416 
  64   0.0000       3.339404        90.8698 
  65   0.0000       3.444647        93.7336 
  66   0.0000       3.581196        97.4493 
  67   0.0000       3.616943        98.4220 
  68   0.0000       3.654159        99.4347 
  69   0.0000       3.675204       100.0074 
  70   0.0000       3.763820       102.4187 
  71   0.0000       3.767034       102.5062 
  72   0.0000       3.814656       103.8021 
  73   0.0000       3.873427       105.4013 
  74   0.0000       3.907499       106.3285 
  75   0.0000       3.920382       106.6790 
  76   0.0000       3.987972       108.5182 
  77   0.0000       4.050900       110.2306 
  78   0.0000       4.075445       110.8985 
  79   0.0000       4.115930       112.0002 
  80   0.0000       4.182306       113.8063 
  81   0.0000       4.215218       114.7019 
  82   0.0000       4.255977       115.8110 
  83   0.0000       4.441120       120.8490 
  84   0.0000       4.441655       120.8636 
  85   0.0000       4.541682       123.5855 
  86   0.0000       4.600876       125.1962 
  87   0.0000       4.613631       125.5433 
  88   0.0000       4.770597       129.8146 
  89   0.0000       4.776869       129.9852 
  90   0.0000       4.820358       131.1686 
  91   0.0000       4.896460       133.2395 
  92   0.0000       5.079111       138.2096 
  93   0.0000       5.169240       140.6622 
  94   0.0000       5.170827       140.7053 
  95   0.0000       5.290491       143.9616 
  96   0.0000       5.725957       155.8112 
  97   0.0000       7.221876       196.5172 
  98   0.0000       7.335722       199.6151 
  99   0.0000       7.937215       215.9826 
 100   0.0000       8.064827       219.4551 
 101   0.0000       8.263333       224.8567 
 102   0.0000       8.267017       224.9570 
 103   0.0000       8.329245       226.6503 
 104   0.0000       8.367642       227.6951 
 105   0.0000       8.370920       227.7843 
 106   0.0000       8.528766       232.0795 
 107   0.0000       8.613289       234.3795 
 108   0.0000       8.760165       238.3762 
 109   0.0000       8.773142       238.7293 
 110   0.0000       8.800668       239.4783 
 111   0.0000       8.802992       239.5416 
 112   0.0000       8.852348       240.8846 
 113   0.0000       8.867824       241.3058 
 114   0.0000       8.951209       243.5748 
 115   0.0000       9.068879       246.7767 
 116   0.0000       9.365927       254.8598 
 117   0.0000       9.503025       258.5905 
 118   0.0000       9.590635       260.9745 
 119   0.0000      10.091866       274.6136 
 120   0.0000      10.298363       280.2327 
 121   0.0000      10.307828       280.4903 
 122   0.0000      10.357573       281.8439 
 123   0.0000      10.679630       290.6075 
 124   0.0000      10.751597       292.5658 
 125   0.0000      10.752886       292.6009 
 126   0.0000      10.813724       294.2564 
 127   0.0000      10.841118       295.0018 
 128   0.0000      10.843045       295.0543 
 129   0.0000      10.861917       295.5678 
 130   0.0000      10.887031       296.2512 
 131   0.0000      10.901779       296.6525 
 132   0.0000      11.044897       300.5469 
 133   0.0000      11.045264       300.5569 
 134   0.0000      11.205206       304.9092 
 135   0.0000      11.261250       306.4342 
 136   0.0000      11.330846       308.3280 
 137   0.0000      11.335195       308.4463 
 138   0.0000      11.348766       308.8156 
 139   0.0000      11.381735       309.7128 
 140   0.0000      11.410240       310.4884 
 141   0.0000      11.412108       310.5392 
 142   0.0000      11.449000       311.5431 
 143   0.0000      11.549016       314.2647 
 144   0.0000      11.605998       315.8153 
 145   0.0000      11.650073       317.0146 
 146   0.0000      11.715409       318.7925 
 147   0.0000      11.792274       320.8841 
 148   0.0000      11.794877       320.9549 
 149   0.0000      11.828887       321.8804 
 150   0.0000      11.838585       322.1443 
 151   0.0000      11.894759       323.6729 
 152   0.0000      11.980117       325.9956 
 153   0.0000      11.989891       326.2615 
 154   0.0000      12.176616       331.3426 
 155   0.0000      12.239588       333.0561 
 156   0.0000      13.174251       358.4896 
 157   0.0000      13.294161       361.7525 
 158   0.0000      13.349551       363.2597 
 159   0.0000      13.455368       366.1392 
 160   0.0000      13.535925       368.3312 
 161   0.0000      13.682270       372.3135 
 162   0.0000      14.253089       387.8463 
 163   0.0000      14.968292       407.3079 
 164   0.0000      15.052983       409.6125 
 165   0.0000      47.137948      1282.6888 
 166   0.0000      47.623926      1295.9129 
 167   0.0000      47.848031      1302.0111 
 168   0.0000     252.040140      6858.3609 
 169   0.0000     252.594370      6873.4422 
 170   0.0000     252.861970      6880.7240 

                    ********************************
                    * MULLIKEN POPULATION ANALYSIS *
                    ********************************

--------------------------------------------
MULLIKEN ATOMIC CHARGES AND SPIN POPULATIONS
--------------------------------------------
   0 O :    0.221469    0.000034
   1 O :   -0.111421   -0.502707
   2 O :   -0.110049    0.502673
Sum of atomic charges         :   -0.0000000
Sum of atomic spin populations:    0.0000000

-----------------------------------------------------
MULLIKEN REDUCED ORBITAL CHARGES AND SPIN POPULATIONS
-----------------------------------------------------
CHARGE
  0 O s       :     3.787824  s :     3.787824
      pz      :     1.125170  p :     3.850125
      px      :     1.331810
      py      :     1.393144
      dz2     :     0.033425  d :     0.124704
      dxz     :     0.038729
      dyz     :     0.026186
      dx2y2   :     0.011559
      dxy     :     0.014805
      f0      :     0.002415  f :     0.015038
      f+1     :     0.006076
      f-1     :     0.002195
      f+2     :     0.001205
      f-2     :     0.000918
      f+3     :     0.000944
      f-3     :     0.001285
      g0      :     0.000223  g :     0.000839
      g+1     :     0.000187
      g-1     :     0.000116
      g+2     :     0.000077
      g-2     :     0.000002
      g+3     :     0.000077
      g-3     :     0.000060
      g+4     :     0.000047
      g-4     :     0.000050
  1 O s       :     3.951644  s :     3.951644
      pz      :     0.923378  p :     4.113122
      px      :     1.926056
      py      :     1.263687
      dz2     :     0.016564  d :     0.039756
      dxz     :     0.008386
      dyz     :     0.014292
      dx2y2   :     0.000402
      dxy     :     0.000113
      f0      :     0.002405  f :     0.006500
      f+1     :     0.001652
      f-1     :     0.002315
      f+2     :     0.000055
      f-2     :     0.000016
      f+3     :     0.000028
      f-3     :     0.000029
      g0      :     0.000184  g :     0.000398
      g+1     :     0.000092
      g-1     :     0.000120
      g+2     :     0.000001
      g-2     :     0.000001
      g+3     :     0.000000
      g-3     :    -0.000000
      g+4     :     0.000000
      g-4     :     0.000000
  2 O s       :     3.949913  s :     3.949913
      pz      :     1.696287  p :     4.113456
      px      :     1.153375
      py      :     1.263795
      dz2     :     0.005686  d :     0.039767
      dxz     :     0.009960
      dyz     :     0.003267
      dx2y2   :     0.009728
      dxy     :     0.011127
      f0      :     0.000717  f :     0.006513
      f+1     :     0.001396
      f-1     :     0.000039
      f+2     :     0.001284
      f-2     :     0.001099
      f+3     :     0.000761
      f-3     :     0.001217
      g0      :     0.000037  g :     0.000399
      g+1     :     0.000061
      g-1     :     0.000004
      g+2     :     0.000060
      g-2     :     0.000004
      g+3     :     0.000083
      g-3     :     0.000067
      g+4     :     0.000037
      g-4     :     0.000046

SPIN
  0 O s       :     0.000050  s :     0.000050
      pz      :     0.011247  p :     0.000016
      px      :    -0.011246
      py      :     0.000014
      dz2     :    -0.000496  d :    -0.000030
      dxz     :     0.000424
      dyz     :    -0.001518
      dx2y2   :     0.000053
      dxy     :     0.001508
      f0      :     0.000001  f :    -0.000002
      f+1     :    -0.000003
      f-1     :    -0.000410
      f+2     :    -0.000016
      f-2     :     0.000086
      f+3     :     0.000018
      f-3     :     0.000323
      g0      :    -0.000012  g :    -0.000001
      g+1     :    -0.000002
      g-1     :    -0.000023
      g+2     :     0.000001
      g-2     :     0.000001
      g+3     :     0.000008
      g-3     :     0.000010
      g+4     :     0.000005
      g-4     :     0.000012
  1 O s       :    -0.004272  s :    -0.004272
      pz      :    -0.014427  p :    -0.500880
      px      :    -0.005330
      py      :    -0.481123
      dz2     :    -0.000309  d :     0.001861
      dxz     :    -0.000080
      dyz     :     0.002316
      dx2y2   :    -0.000104
      dxy     :     0.000038
      f0      :     0.000223  f :     0.000563
      f+1     :    -0.000005
      f-1     :     0.000404
      f+2     :    -0.000016
      f-2     :     0.000005
      f+3     :    -0.000023
      f-3     :    -0.000025
      g0      :     0.000003  g :     0.000021
      g+1     :     0.000000
      g-1     :     0.000018
      g+2     :     0.000000
      g-2     :     0.000000
      g+3     :     0.000000
      g-3     :     0.000000
      g+4     :     0.000000
      g-4     :     0.000000
  2 O s       :     0.004244  s :     0.004244
      pz      :     0.009372  p :     0.500887
      px      :     0.010387
      py      :     0.481128
      dz2     :    -0.000001  d :    -0.001873
      dxz     :    -0.000085
      dyz     :    -0.000285
      dx2y2   :     0.000574
      dxy     :    -0.002076
      f0      :     0.000055  f :    -0.000563
      f+1     :     0.000013
      f-1     :     0.000019
      f+2     :    -0.000109
      f-2     :    -0.000119
      f+3     :    -0.000138
      f-3     :    -0.000284
      g0      :     0.000001  g :    -0.000021
      g+1     :     0.000000
      g-1     :    -0.000000
      g+2     :    -0.000001
      g-2     :    -0.000000
      g+3     :    -0.000002
      g-3     :    -0.000008
      g+4     :    -0.000001
      g-4     :    -0.000010


                     *******************************
                     * LOEWDIN POPULATION ANALYSIS *
                     *******************************

-------------------------------------------
LOEWDIN ATOMIC CHARGES AND SPIN POPULATIONS
-------------------------------------------
   0 O :    0.030167   -0.000011
   1 O :   -0.015096   -0.464228
   2 O :   -0.015071    0.464239

----------------------------------------------------
LOEWDIN REDUCED ORBITAL CHARGES AND SPIN POPULATIONS
----------------------------------------------------
CHARGE
  0 O s       :     3.293618  s :     3.293618
      pz      :     1.295444  p :     4.004264
      px      :     1.427936
      py      :     1.280884
      dz2     :     0.178852  d :     0.551713
      dxz     :     0.189135
      dyz     :     0.084461
      dx2y2   :     0.061236
      dxy     :     0.038029
      f0      :     0.022670  f :     0.114614
      f+1     :     0.045688
      f-1     :     0.013096
      f+2     :     0.011431
      f-2     :     0.005447
      f+3     :     0.008467
      f-3     :     0.007814
      g0      :     0.001155  g :     0.005623
      g+1     :     0.001307
      g-1     :     0.000636
      g+2     :     0.000830
      g-2     :     0.000013
      g+3     :     0.000564
      g-3     :     0.000403
      g+4     :     0.000368
      g-4     :     0.000346
  1 O s       :     3.557151  s :     3.557151
      pz      :     1.181895  p :     4.216890
      px      :     1.807238
      py      :     1.227757
      dz2     :     0.097497  d :     0.186789
      dxz     :     0.046046
      dyz     :     0.042071
      dx2y2   :     0.000956
      dxy     :     0.000220
      f0      :     0.021744  f :     0.050924
      f+1     :     0.015461
      f-1     :     0.013444
      f+2     :     0.000142
      f-2     :     0.000058
      f+3     :     0.000046
      f-3     :     0.000028
      g0      :     0.001562  g :     0.003342
      g+1     :     0.000947
      g-1     :     0.000819
      g+2     :     0.000009
      g-2     :     0.000005
      g+3     :     0.000001
      g-3     :     0.000000
      g+4     :     0.000000
      g-4     :     0.000000
  2 O s       :     3.557123  s :     3.557123
      pz      :     1.652733  p :     4.216896
      px      :     1.336336
      py      :     1.227827
      dz2     :     0.030662  d :     0.186789
      dxz     :     0.054627
      dyz     :     0.009936
      dx2y2   :     0.059209
      dxy     :     0.032354
      f0      :     0.004903  f :     0.050921
      f+1     :     0.012748
      f-1     :     0.000068
      f+2     :     0.011098
      f-2     :     0.005894
      f+3     :     0.008647
      f-3     :     0.007565
      g0      :     0.000293  g :     0.003341
      g+1     :     0.000580
      g-1     :     0.000024
      g+2     :     0.000555
      g-2     :     0.000027
      g+3     :     0.000699
      g-3     :     0.000437
      g+4     :     0.000391
      g-4     :     0.000336

SPIN
  0 O s       :     0.000000  s :     0.000000
      pz      :     0.008443  p :    -0.000007
      px      :    -0.008445
      py      :    -0.000004
      dz2     :    -0.002764  d :    -0.000004
      dxz     :     0.002020
      dyz     :    -0.018213
      dx2y2   :     0.000741
      dxy     :     0.018211
      f0      :    -0.000383  f :     0.000000
      f+1     :    -0.000039
      f-1     :    -0.007382
      f+2     :     0.000250
      f-2     :     0.002970
      f+3     :     0.000172
      f-3     :     0.004413
      g0      :    -0.000031  g :    -0.000000
      g+1     :    -0.000014
      g-1     :    -0.000450
      g+2     :     0.000010
      g-2     :     0.000008
      g+3     :     0.000024
      g-3     :     0.000238
      g+4     :     0.000011
      g-4     :     0.000203
  1 O s       :    -0.005047  s :    -0.005047
      pz      :    -0.008773  p :    -0.454795
      px      :    -0.005873
      py      :    -0.440149
      dz2     :    -0.000279  d :    -0.003474
      dxz     :    -0.000420
      dyz     :    -0.002752
      dx2y2   :    -0.000105
      dxy     :     0.000083
      f0      :     0.000392  f :    -0.000861
      f+1     :    -0.000181
      f-1     :    -0.001030
      f+2     :    -0.000015
      f-2     :     0.000016
      f+3     :    -0.000023
      f-3     :    -0.000021
      g0      :     0.000021  g :    -0.000052
      g+1     :    -0.000010
      g-1     :    -0.000065
      g+2     :     0.000000
      g-2     :     0.000002
      g+3     :    -0.000000
      g-3     :    -0.000000
      g+4     :     0.000000
      g-4     :     0.000000
  2 O s       :     0.005046  s :     0.005046
      pz      :     0.008513  p :     0.454806
      px      :     0.006137
      py      :     0.440155
      dz2     :     0.000033  d :     0.003473
      dxz     :    -0.000169
      dyz     :     0.001222
      dx2y2   :     0.000941
      dxy     :     0.001446
      f0      :     0.000001  f :     0.000863
      f+1     :     0.000096
      f-1     :     0.000011
      f+2     :    -0.000153
      f-2     :     0.000547
      f+3     :    -0.000117
      f-3     :     0.000478
      g0      :     0.000002  g :     0.000051
      g+1     :    -0.000005
      g-1     :     0.000001
      g+2     :     0.000003
      g-2     :     0.000004
      g+3     :    -0.000009
      g-3     :     0.000042
      g+4     :    -0.000002
      g-4     :     0.000016


                      *****************************
                      * MAYER POPULATION ANALYSIS *
                      *****************************

  NA   - Mulliken gross atomic population
  ZA   - Total nuclear charge
  QA   - Mulliken gross atomic charge
  VA   - Mayer's total valence
  BVA  - Mayer's bonded valence
  FA   - Mayer's free valence

  ATOM       NA         ZA         QA         VA         BVA        FA
  0 O      7.7785     8.0000     0.2215     2.7048     2.6958     0.0090
  1 O      8.1114     8.0000    -0.1114     1.9145     1.6771     0.2373
  2 O      8.1100     8.0000    -0.1100     1.9144     1.6771     0.2373

  Mayer bond orders larger than 0.1
B(  0-O ,  1-O ) :   1.3479 B(  0-O ,  2-O ) :   1.3478 B(  1-O ,  2-O ) :   0.3292 


-------
TIMINGS
-------

Total SCF time: 0 days 0 hours 1 min 15 sec 

Total time                  ....      75.362 sec
Sum of individual times     ....      75.245 sec  ( 99.8%)

Fock matrix formation       ....      49.858 sec  ( 66.2%)
  XC integration            ....       1.663 sec  (  3.3% of F)
    Basis function eval.    ....       0.165 sec  (  9.9% of XC)
    Density eval.           ....       0.270 sec  ( 16.2% of XC)
    XC-Functional eval.     ....       0.042 sec  (  2.5% of XC)
    XC-Potential eval.      ....       0.977 sec  ( 58.7% of XC)
Diagonalization             ....       0.410 sec  (  0.5%)
Density matrix formation    ....       0.014 sec  (  0.0%)
Population analysis         ....       0.019 sec  (  0.0%)
Initial guess               ....       0.110 sec  (  0.1%)
Orbital Transformation      ....       0.000 sec  (  0.0%)
Orbital Orthonormalization  ....       0.000 sec  (  0.0%)
DIIS solution               ....       0.090 sec  (  0.1%)
Grid generation             ....       0.154 sec  (  0.2%)
SCF Stability Analysis      ....      24.590 sec  ( 32.6%)

-------------------------   --------------------
FINAL SINGLE POINT ENERGY      -225.436582089524
-------------------------   --------------------


                            ***************************************
                            *     ORCA property calculations      *
                            ***************************************

                                    ---------------------
                                    Active property flags
                                    ---------------------
   (+) Dipole Moment


------------------------------------------------------------------------------
                       ORCA ELECTRIC PROPERTIES CALCULATION
------------------------------------------------------------------------------

Dipole Moment Calculation                       ... on
Quadrupole Moment Calculation                   ... off
Polarizability Calculation                      ... off
GBWName                                         ... mol.gbw
Electron density file                           ... mol.scfp.tmp
The origin for moment calculation is the CENTER OF MASS  = ( 0.711375,  0.000000  0.434922)

-------------
DIPOLE MOMENT
-------------
                                X             Y             Z
Electronic contribution:     -0.18335      -0.00000      -0.11269
Nuclear contribution   :      0.00000       0.00000       0.00000
                        -----------------------------------------
Total Dipole Moment    :     -0.18335      -0.00000      -0.11269
                        -----------------------------------------
Magnitude (a.u.)       :      0.21522
Magnitude (Debye)      :      0.54703


Timings for individual modules:

Sum of individual times         ...       76.118 sec (=   1.269 min)
GTO integral calculation        ...        0.533 sec (=   0.009 min)   0.7 %
SCF iterations                  ...       75.585 sec (=   1.260 min)  99.3 %


                 $$$$$$$$$$$$$$$$  JOB NUMBER  2 $$$$$$$$$$$$$$


                       ****************************
                       * Single Point Calculation *
                       ****************************

---------------------------------
CARTESIAN COORDINATES (ANGSTROEM)
---------------------------------
  O      0.000000    0.000000    0.000000
  O      0.000000    0.000000    1.268814
  O      1.129330    0.000000   -0.578362

----------------------------
CARTESIAN COORDINATES (A.U.)
----------------------------
  NO LB      ZA    FRAG     MASS         X           Y           Z
   0 O     8.0000    0    15.999    0.000000    0.000000    0.000000
   1 O     8.0000    0    15.999    0.000000    0.000000    2.397711
   2 O     8.0000    0    15.999    2.134124    0.000000   -1.092946

--------------------------------
INTERNAL COORDINATES (ANGSTROEM)
--------------------------------
 O      0   0   0     0.000000000000     0.00000000     0.00000000
 O      1   0   0     1.268813890000     0.00000000     0.00000000
 O      1   2   0     1.268813890000   117.11828947     0.00000000

---------------------------
INTERNAL COORDINATES (A.U.)
---------------------------
 O      0   0   0     0.000000000000     0.00000000     0.00000000
 O      1   0   0     2.397710767015     0.00000000     0.00000000
 O      1   2   0     2.397710767015   117.11828947     0.00000000

---------------------
BASIS SET INFORMATION
---------------------
There are 1 groups of distinct atoms

 Group   1 Type O   : 15s8p3d2f1g contracted to 7s4p3d2f1g pattern {8211111/5111/111/11/1}

Atom   0O    basis set group =>   1
Atom   1O    basis set group =>   1
Atom   2O    basis set group =>   1


           ************************************************************
           *        Program running with 4 parallel MPI-processes     *
           *              working on a common directory               *
           ************************************************************
------------------------------------------------------------------------------
                           ORCA GTO INTEGRAL CALCULATION
------------------------------------------------------------------------------

                         BASIS SET STATISTICS AND STARTUP INFO

 # of primitive gaussian shells          ...   87
 # of primitive gaussian functions       ...  231
 # of contracted shells                  ...   51
 # of contracted basis functions         ...  171
 Highest angular momentum                ...    4
 Maximum contraction depth               ...    8
 Integral package used                   ... LIBINT
 Integral threshhold            Thresh   ...  1.000e-12
 Primitive cut-off              TCut     ...  1.000e-14


------------------------------ INTEGRAL EVALUATION ----------------------------


 * One electron integrals 
 Pre-screening matrix                    ... done
 Shell pair data                         ... done (   0.000 sec)



           ************************************************************
           *        Program running with 4 parallel MPI-processes     *
           *              working on a common directory               *
           ************************************************************
-------------------------------------------------------------------------------
                                 ORCA SCF
-------------------------------------------------------------------------------

------------
SCF SETTINGS
------------
Hamiltonian:
 Density Functional     Method          .... DFT(GTOs)
 Exchange Functional    Exchange        .... B88
   X-Alpha parameter    XAlpha          ....  0.666667
   Becke's b parameter  XBeta           ....  0.004200
 Correlation Functional Correlation     .... LYP
 LDA part of GGA corr.  LDAOpt          .... VWN-5
 Gradients option       PostSCFGGA      .... off
 Hybrid DFT is turned on
   Fraction HF Exchange ScalHFX         ....  0.200000
   Scaling of DF-GGA-X  ScalDFX         ....  0.720000
   Scaling of DF-GGA-C  ScalDFC         ....  0.810000
   Scaling of DF-LDA-C  ScalLDAC        ....  1.000000
   Perturbative correction              ....  0.000000
   NL short-range parameter             ....  4.800000


General Settings:
 Integral files         IntName         .... mol_job2
 Hartree-Fock type      HFTyp           .... UHF
 Total Charge           Charge          ....    0
 Multiplicity           Mult            ....    1
 Number of Electrons    NEL             ....   24
 Basis Dimension        Dim             ....  171
 Nuclear Repulsion      ENuc            ....     69.0269996963 Eh

Convergence Acceleration:
 DIIS                   CNVDIIS         .... on
   Start iteration      DIISMaxIt       ....    12
   Startup error        DIISStart       ....  0.200000
   # of expansion vecs  DIISMaxEq       ....     5
   Bias factor          DIISBfac        ....   1.050
   Max. coefficient     DIISMaxC        ....  10.000
 Newton-Raphson         CNVNR           .... off
 SOSCF                  CNVSOSCF        .... off
 Level Shifting         CNVShift        .... on
   Level shift para.    LevelShift      ....    0.2500
   Turn off err/grad.   ShiftErr        ....    0.0010
 Zerner damping         CNVZerner       .... off
 Static damping         CNVDamp         .... on
   Fraction old density DampFac         ....    0.7000
   Max. Damping (<1)    DampMax         ....    0.9800
   Min. Damping (>=0)   DampMin         ....    0.0000
   Turn off err/grad.   DampErr         ....    0.1000
 Fernandez-Rico         CNVRico         .... off

SCF Procedure:
 Maximum # iterations   MaxIter         ....   125
 SCF integral mode      SCFMode         .... Direct
   Integral package                     .... LIBINT
 Reset frequeny         DirectResetFreq ....    20
 Integral Threshold     Thresh          ....  1.000e-12 Eh
 Primitive CutOff       TCut            ....  1.000e-14 Eh

Convergence Tolerance:
 Convergence Check Mode ConvCheckMode   .... Total+1el-Energy
 Convergence forced     ConvForced      .... 0
 Energy Change          TolE            ....  1.000e-09 Eh
 1-El. energy change                    ....  1.000e-06 Eh
 DIIS Error             TolErr          ....  1.000e-08


Diagonalization of the overlap matrix:
Smallest eigenvalue                        ... 5.403e-04
Time for diagonalization                   ...    0.021 sec
Threshold for overlap eigenvalues          ... 1.000e-08
Number of eigenvalues below threshold      ... 0
Time for construction of square roots      ...    0.008 sec
Total time needed                          ...    0.030 sec

---------------------
INITIAL GUESS: MOREAD
---------------------
Guess MOs are being read from file: mol.gbw
Input Geometry matches current geometry (good)
Input basis set matches current basis set (good)
MOs were renormalized
MOs were reorthogonalized (Cholesky)
                      ------------------
                      INITIAL GUESS DONE (   0.0 sec)
                      ------------------
-------------------
DFT GRID GENERATION
-------------------

General Integration Accuracy     IntAcc      ...  4.340
Radial Grid Type                 RadialGrid  ... Gauss-Chebyshev
Angular Grid (max. acc.)         AngularGrid ... Lebedev-110
Angular grid pruning method      GridPruning ... 3 (G Style)
Weight generation scheme         WeightScheme... Becke
Basis function cutoff            BFCut       ...    1.0000e-12
Integration weight cutoff        WCut        ...    1.0000e-14
Grids for H and He will be reduced by one unit

# of grid points (after initial pruning)     ...   5148 (   0.0 sec)
# of grid points (after weights+screening)   ...   5111 (   0.0 sec)
nearest neighbour list constructed           ...    0.0 sec
Grid point re-assignment to atoms done       ...    0.0 sec
Grid point division into batches done        ...    0.0 sec
Reduced shell lists constructed in    0.0 sec

Total number of grid points                  ...     5111
Total number of batches                      ...       81
Average number of points per batch           ...       63
Average number of grid points per atom       ...     1704
Average number of shells per batch           ...    39.18 (76.83%)
Average number of basis functions per batch  ...   143.82 (84.10%)
Average number of large shells per batch     ...    35.50 (90.60%)
Average number of large basis fcns per batch ...   130.68 (90.87%)
Maximum spatial batch extension              ...  14.32, 20.95, 12.83 au
Average spatial batch extension              ...   1.10,  1.30,  1.00 au

Time for grid setup =    0.029 sec

--------------
SCF ITERATIONS
--------------
ITER       Energy         Delta-E        Max-DP      RMS-DP      [F,P]     Damp
               ***  Starting incremental Fock matrix formation  ***
  0   -225.4366252535   0.000000000000 0.00000001  0.00000000  0.0000000 0.7000
                 **** Energy Check signals convergence ****

               *****************************************************
               *                     SUCCESS                       *
               *           SCF CONVERGED AFTER   1 CYCLES          *
               *****************************************************


------------------------------------------------------------------------------
                          SCF STABILITY ANALYSIS                              
------------------------------------------------------------------------------


---------------
TD-DFT XC SETUP
---------------

DFT calculation                         ... on
Name of the grid file                   ... mol_job2.grid.tmp
Exchange functional (SCF)               ... B88
Exchange functional (TD-DFT)            ... B88
   X-Alpha parameter    XAlpha (SCF)    ...  0.666667
   X-Alpha parameter    XAlpha (TD-DFT) ...  0.666667
   Becke's b parameter  XBeta (SCF)     ...  0.004200
   Becke's b parameter  XBeta (TD-DFT)  ...  0.004200
Correlation functional (SCF)            ... LYP
Correlation functional (TD-DFT)         ... LYP
 LDA part of GGA corr.  LDAOpt (SCF)    ... VWN-5
 LDA part of GGA corr.  LDAOpt (TD-DFT) ... VWN-5
Hybrid DFT                              ... on
   Exchange mixing (SCF)                ...  0.200
   Exchange mixing (TD-DFT)             ...  0.200
   GGA exch. scaling(SCF)               ...  0.720
   GGA exch. scaling (TD-DFT)           ...  0.720
   GGA corr. scaling (SCF)              ...  0.810
   GGA corr. scaling (TD-DFT)           ...  0.810

Electron density on the grid   ... found on disk
Building xc-kernel on the grid ... done
                    *** TD-DFT CALCULATION INITIALIZED ***

                       ****Iteration    0****

   Memory handling for direct AO based CIS:
   Memory per vector needed      ...     1 MB
   Memory needed                 ...     8 MB
   Memory available              ...  1024 MB
   Number of vectors per batch   ...   764
   Number of batches             ...     1
   Time for densities:     0.008
   Time for XC-Integration:     0.318
   Using LibInt in JK Direct
   Time for J+K (Direct):    12.360
   Time for Sigma-Completion:     0.018
   Lowest Energy          :     0.045699950486
   Maximum Energy change  :     0.090801845150 (vector 2)
   Maximum residual norm  :     0.099519170094

                       ****Iteration    1****
   Time for densities:     0.003
   Time for XC-Integration:     0.139
   Using LibInt in JK Direct
   Time for J+K (Direct):     6.082
   Time for Sigma-Completion:     0.010
   Lowest Energy          :     0.035700240340
   Maximum Energy change  :     0.030144129315 (vector 2)
   Maximum residual norm  :     0.011450637985

                       ****Iteration    2****
   Time for densities:     0.004
   Time for XC-Integration:     0.134
   Using LibInt in JK Direct
   Time for J+K (Direct):     6.296
   Time for Sigma-Completion:     0.011
   Lowest Energy          :     0.035529168610
   Maximum Energy change  :     0.006815315855 (vector 2)
   Maximum residual norm  :     0.000526134851

                       ****Iteration    3****
   Time for densities:     0.003
   Time for XC-Integration:     0.140
   Using LibInt in JK Direct
   Time for J+K (Direct):     6.187
   Time for Sigma-Completion:     0.010
   Lowest Energy          :     0.035512573844
   Maximum Energy change  :     0.000200883677 (vector 2)
   Maximum residual norm  :     0.000052878375

      *** CONVERGENCE OF RESIDUAL NORM REACHED ***

----------------------------- 
SCF STABILITY ANALYSIS RESULT 
----------------------------- 

UHF/UKS->UHF/UKS - singlet - internal

   Root    Eigenvalue (au) 
     0       0.035513 
     1       0.046267 
     2       0.053642 

Stability Analysis indicates a stable HF/KS wave function.


Total time for performing the stability analysis:    31.743sec

Setting up the final grid:

General Integration Accuracy     IntAcc      ...  4.670
Radial Grid Type                 RadialGrid  ... Gauss-Chebyshev
Angular Grid (max. acc.)         AngularGrid ... Lebedev-302
Angular grid pruning method      GridPruning ... 3 (G Style)
Weight generation scheme         WeightScheme... Becke
Basis function cutoff            BFCut       ...    1.0000e-12
Integration weight cutoff        WCut        ...    1.0000e-14
Grids for H and He will be reduced by one unit

# of grid points (after initial pruning)     ...  18636 (   0.0 sec)
# of grid points (after weights+screening)   ...  18484 (   0.0 sec)
nearest neighbour list constructed           ...    0.0 sec
Grid point re-assignment to atoms done       ...    0.0 sec
Grid point division into batches done        ...    0.1 sec
Reduced shell lists constructed in    0.1 sec

Total number of grid points                  ...    18484
Total number of batches                      ...      290
Average number of points per batch           ...       63
Average number of grid points per atom       ...     6161
Average number of shells per batch           ...    36.01 (70.61%)
Average number of basis functions per batch  ...   131.64 (76.98%)
Average number of large shells per batch     ...    32.03 (88.93%)
Average number of large basis fcns per batch ...   118.62 (90.11%)
Maximum spatial batch extension              ...  11.51, 16.88, 12.18 au
Average spatial batch extension              ...   0.72,  0.80,  0.72 au

Final grid set up in    0.1 sec
Final integration                            ... done (   0.2 sec)
Change in XC energy                          ...     0.000043138
Integrated number of electrons               ...    23.999992797
Previous integrated no of electrons          ...    24.000264061

----------------
TOTAL SCF ENERGY
----------------

Total Energy       :         -225.43658212 Eh           -6134.44127 eV

Components:
Nuclear Repulsion  :           69.02699970 Eh            1878.32015 eV
Electronic Energy  :         -294.46358181 Eh           -8012.76142 eV
One Electron Energy:         -446.10724288 Eh          -12139.19522 eV
Two Electron Energy:          151.64366107 Eh            4126.43380 eV

Virial components:
Potential Energy   :         -450.14959277 Eh          -12249.19316 eV
Kinetic Energy     :          224.71301065 Eh            6114.75189 eV
Virial Ratio       :            2.00321998


DFT components:
N(Alpha)           :       11.999996454440 electrons
N(Beta)            :       11.999996342180 electrons
N(Total)           :       23.999992796621 electrons
E(X)               :      -19.532484013687 Eh       
E(C)               :       -1.028111667653 Eh       
E(XC)              :      -20.560595681340 Eh       

---------------
SCF CONVERGENCE
---------------

  Last Energy change         ...   -9.2655e-12  Tolerance :   1.0000e-09
  Last MAX-Density change    ...    5.3289e-09  Tolerance :   1.0000e-08
  Last RMS-Density change    ...    1.4358e-10  Tolerance :   1.0000e-09
  Last DIIS Error            ...    1.7572e-08  Tolerance :   1.0000e-08

             **** THE GBW FILE WAS UPDATED (mol_job2.gbw) ****
             **** DENSITY FILE WAS UPDATED (mol_job2.scfp.tmp) ****
             **** ENERGY FILE WAS UPDATED (mol_job2.en.tmp) ****
----------------------
UHF SPIN CONTAMINATION
----------------------

Warning: in a DFT calculation there is little theoretical justification to 
         calculate <S**2> as in Hartree-Fock theory. We will do it anyways
         but you should keep in mind that the values have only limited relevance

Expectation value of <S**2>     :     0.341897
Ideal value S*(S+1) for S=0.0   :     0.000000
Deviation                       :     0.341897

----------------
ORBITAL ENERGIES
----------------
                 SPIN UP ORBITALS
  NO   OCC          E(Eh)            E(eV) 
   0   1.0000     -19.411929      -528.2254 
   1   1.0000     -19.260457      -524.1037 
   2   1.0000     -19.246401      -523.7212 
   3   1.0000      -1.360563       -37.0228 
   4   1.0000      -1.097366       -29.8609 
   5   1.0000      -0.786245       -21.3948 
   6   1.0000      -0.600278       -16.3344 
   7   1.0000      -0.598149       -16.2765 
   8   1.0000      -0.589038       -16.0285 
   9   1.0000      -0.382888       -10.4189 
  10   1.0000      -0.359350        -9.7784 
  11   1.0000      -0.345118        -9.3911 
  12   0.0000      -0.180578        -4.9138 
  13   0.0000       0.057825         1.5735 
  14   0.0000       0.119825         3.2606 
  15   0.0000       0.197521         5.3748 
  16   0.0000       0.205013         5.5787 
  17   0.0000       0.227196         6.1823 
  18   0.0000       0.260447         7.0871 
  19   0.0000       0.284700         7.7471 
  20   0.0000       0.288681         7.8554 
  21   0.0000       0.292211         7.9515 
  22   0.0000       0.326766         8.8917 
  23   0.0000       0.373750        10.1703 
  24   0.0000       0.377306        10.2670 
  25   0.0000       0.609752        16.5922 
  26   0.0000       0.718221        19.5438 
  27   0.0000       0.796729        21.6801 
  28   0.0000       0.892463        24.2851 
  29   0.0000       0.892666        24.2907 
  30   0.0000       1.035261        28.1709 
  31   0.0000       1.066426        29.0189 
  32   0.0000       1.135472        30.8978 
  33   0.0000       1.140084        31.0233 
  34   0.0000       1.196562        32.5601 
  35   0.0000       1.214926        33.0598 
  36   0.0000       1.227183        33.3934 
  37   0.0000       1.263957        34.3940 
  38   0.0000       1.268179        34.5089 
  39   0.0000       1.306494        35.5515 
  40   0.0000       1.308889        35.6167 
  41   0.0000       1.324008        36.0281 
  42   0.0000       1.334523        36.3142 
  43   0.0000       1.595543        43.4169 
  44   0.0000       1.619490        44.0685 
  45   0.0000       1.685745        45.8715 
  46   0.0000       1.698812        46.2270 
  47   0.0000       1.744235        47.4631 
  48   0.0000       1.865565        50.7646 
  49   0.0000       1.881162        51.1890 
  50   0.0000       1.962158        53.3930 
  51   0.0000       2.622194        71.3535 
  52   0.0000       2.690059        73.2002 
  53   0.0000       2.712166        73.8018 
  54   0.0000       2.809176        76.4416 
  55   0.0000       2.924725        79.5858 
  56   0.0000       2.974100        80.9294 
  57   0.0000       3.058859        83.2358 
  58   0.0000       3.077359        83.7392 
  59   0.0000       3.082209        83.8712 
  60   0.0000       3.105782        84.5126 
  61   0.0000       3.140624        85.4607 
  62   0.0000       3.289511        89.5121 
  63   0.0000       3.323702        90.4425 
  64   0.0000       3.339395        90.8696 
  65   0.0000       3.444644        93.7335 
  66   0.0000       3.581171        97.4486 
  67   0.0000       3.617031        98.4244 
  68   0.0000       3.654455        99.4428 
  69   0.0000       3.675155       100.0061 
  70   0.0000       3.763674       102.4148 
  71   0.0000       3.767048       102.5066 
  72   0.0000       3.814613       103.8009 
  73   0.0000       3.873759       105.4103 
  74   0.0000       3.907142       106.3187 
  75   0.0000       3.920419       106.6800 
  76   0.0000       3.987931       108.5171 
  77   0.0000       4.050935       110.2315 
  78   0.0000       4.075466       110.8991 
  79   0.0000       4.115956       112.0009 
  80   0.0000       4.182297       113.8061 
  81   0.0000       4.215156       114.7002 
  82   0.0000       4.256025       115.8123 
  83   0.0000       4.441119       120.8490 
  84   0.0000       4.441683       120.8643 
  85   0.0000       4.541677       123.5853 
  86   0.0000       4.600927       125.1976 
  87   0.0000       4.613653       125.5439 
  88   0.0000       4.770549       129.8132 
  89   0.0000       4.776848       129.9847 
  90   0.0000       4.820347       131.1683 
  91   0.0000       4.896416       133.2382 
  92   0.0000       5.079170       138.2112 
  93   0.0000       5.169226       140.6618 
  94   0.0000       5.170960       140.7090 
  95   0.0000       5.290327       143.9571 
  96   0.0000       5.725963       155.8114 
  97   0.0000       7.221940       196.5190 
  98   0.0000       7.335677       199.6139 
  99   0.0000       7.937274       215.9842 
 100   0.0000       8.064784       219.4539 
 101   0.0000       8.263312       224.8562 
 102   0.0000       8.266994       224.9563 
 103   0.0000       8.329829       226.6662 
 104   0.0000       8.367180       227.6826 
 105   0.0000       8.370952       227.7852 
 106   0.0000       8.528839       232.0815 
 107   0.0000       8.613282       234.3793 
 108   0.0000       8.766452       238.5473 
 109   0.0000       8.769367       238.6266 
 110   0.0000       8.794941       239.3225 
 111   0.0000       8.806381       239.6338 
 112   0.0000       8.852501       240.8888 
 113   0.0000       8.867744       241.3036 
 114   0.0000       8.951171       243.5737 
 115   0.0000       9.068822       246.7752 
 116   0.0000       9.365873       254.8584 
 117   0.0000       9.503089       258.5922 
[...]
  59   0.0000       3.082234        83.8719 
  60   0.0000       3.105769        84.5123 
  61   0.0000       3.140532        85.4582 
  62   0.0000       3.289485        89.5114 
  63   0.0000       3.323667        90.4416 
  64   0.0000       3.339404        90.8698 
  65   0.0000       3.444647        93.7336 
  66   0.0000       3.581196        97.4493 
  67   0.0000       3.616943        98.4220 
  68   0.0000       3.654159        99.4347 
  69   0.0000       3.675204       100.0074 
  70   0.0000       3.763820       102.4187 
  71   0.0000       3.767034       102.5062 
  72   0.0000       3.814656       103.8021 
  73   0.0000       3.873427       105.4013 
  74   0.0000       3.907499       106.3285 
  75   0.0000       3.920382       106.6790 
  76   0.0000       3.987972       108.5182 
  77   0.0000       4.050900       110.2306 
  78   0.0000       4.075445       110.8985 
  79   0.0000       4.115930       112.0002 
  80   0.0000       4.182306       113.8063 
  81   0.0000       4.215218       114.7019 
  82   0.0000       4.255977       115.8110 
  83   0.0000       4.441120       120.8490 
  84   0.0000       4.441655       120.8636 
  85   0.0000       4.541682       123.5854 
  86   0.0000       4.600876       125.1962 
  87   0.0000       4.613630       125.5433 
  88   0.0000       4.770597       129.8146 
  89   0.0000       4.776869       129.9852 
  90   0.0000       4.820358       131.1686 
  91   0.0000       4.896460       133.2395 
  92   0.0000       5.079111       138.2096 
  93   0.0000       5.169240       140.6622 
  94   0.0000       5.170827       140.7053 
  95   0.0000       5.290491       143.9616 
  96   0.0000       5.725957       155.8112 
  97   0.0000       7.221876       196.5172 
  98   0.0000       7.335722       199.6151 
  99   0.0000       7.937215       215.9826 
 100   0.0000       8.064827       219.4551 
 101   0.0000       8.263333       224.8567 
 102   0.0000       8.267016       224.9570 
 103   0.0000       8.329245       226.6503 
 104   0.0000       8.367642       227.6951 
 105   0.0000       8.370920       227.7843 
 106   0.0000       8.528766       232.0795 
 107   0.0000       8.613289       234.3795 
 108   0.0000       8.760165       238.3762 
 109   0.0000       8.773142       238.7293 
 110   0.0000       8.800668       239.4783 
 111   0.0000       8.802992       239.5416 
 112   0.0000       8.852348       240.8846 
 113   0.0000       8.867824       241.3058 
 114   0.0000       8.951208       243.5748 
 115   0.0000       9.068879       246.7767 
 116   0.0000       9.365927       254.8598 
 117   0.0000       9.503025       258.5905 
 118   0.0000       9.590635       260.9745 
 119   0.0000      10.091866       274.6136 
 120   0.0000      10.298363       280.2327 
 121   0.0000      10.307828       280.4903 
 122   0.0000      10.357573       281.8439 
 123   0.0000      10.679630       290.6075 
 124   0.0000      10.751597       292.5658 
 125   0.0000      10.752886       292.6009 
 126   0.0000      10.813724       294.2564 
 127   0.0000      10.841118       295.0018 
 128   0.0000      10.843045       295.0543 
 129   0.0000      10.861917       295.5678 
 130   0.0000      10.887031       296.2512 
 131   0.0000      10.901779       296.6525 
 132   0.0000      11.044897       300.5469 
 133   0.0000      11.045264       300.5569 
 134   0.0000      11.205206       304.9092 
 135   0.0000      11.261250       306.4342 
 136   0.0000      11.330846       308.3280 
 137   0.0000      11.335195       308.4463 
 138   0.0000      11.348766       308.8156 
 139   0.0000      11.381735       309.7128 
 140   0.0000      11.410240       310.4884 
 141   0.0000      11.412108       310.5392 
 142   0.0000      11.449000       311.5431 
 143   0.0000      11.549016       314.2647 
 144   0.0000      11.605998       315.8153 
 145   0.0000      11.650073       317.0146 
 146   0.0000      11.715409       318.7925 
 147   0.0000      11.792274       320.8841 
 148   0.0000      11.794877       320.9549 
 149   0.0000      11.828887       321.8804 
 150   0.0000      11.838585       322.1443 
 151   0.0000      11.894759       323.6729 
 152   0.0000      11.980117       325.9956 
 153   0.0000      11.989891       326.2615 
 154   0.0000      12.176615       331.3426 
 155   0.0000      12.239588       333.0561 
 156   0.0000      13.174251       358.4896 
 157   0.0000      13.294161       361.7525 
 158   0.0000      13.349551       363.2597 
 159   0.0000      13.455368       366.1392 
 160   0.0000      13.535925       368.3312 
 161   0.0000      13.682269       372.3135 
 162   0.0000      14.253089       387.8463 
 163   0.0000      14.968292       407.3079 
 164   0.0000      15.052983       409.6125 
 165   0.0000      47.137948      1282.6888 
 166   0.0000      47.623926      1295.9129 
 167   0.0000      47.848031      1302.0111 
 168   0.0000     252.040140      6858.3609 
 169   0.0000     252.594370      6873.4422 
 170   0.0000     252.861970      6880.7240 

                    ********************************
                    * MULLIKEN POPULATION ANALYSIS *
                    ********************************

--------------------------------------------
MULLIKEN ATOMIC CHARGES AND SPIN POPULATIONS
--------------------------------------------
   0 O :    0.221469    0.000034
   1 O :   -0.111421   -0.502707
   2 O :   -0.110049    0.502673
Sum of atomic charges         :   -0.0000000
Sum of atomic spin populations:   -0.0000000

-----------------------------------------------------
MULLIKEN REDUCED ORBITAL CHARGES AND SPIN POPULATIONS
-----------------------------------------------------
CHARGE
  0 O s       :     3.787824  s :     3.787824
      pz      :     1.125170  p :     3.850125
      px      :     1.331810
      py      :     1.393144
      dz2     :     0.033425  d :     0.124704
      dxz     :     0.038729
      dyz     :     0.026186
      dx2y2   :     0.011559
      dxy     :     0.014805
      f0      :     0.002415  f :     0.015038
      f+1     :     0.006076
      f-1     :     0.002195
      f+2     :     0.001205
      f-2     :     0.000918
      f+3     :     0.000944
      f-3     :     0.001285
      g0      :     0.000223  g :     0.000839
      g+1     :     0.000187
      g-1     :     0.000116
      g+2     :     0.000077
      g-2     :     0.000002
      g+3     :     0.000077
      g-3     :     0.000060
      g+4     :     0.000047
      g-4     :     0.000050
  1 O s       :     3.951644  s :     3.951644
      pz      :     0.923378  p :     4.113122
      px      :     1.926056
      py      :     1.263687
      dz2     :     0.016564  d :     0.039756
      dxz     :     0.008386
      dyz     :     0.014292
      dx2y2   :     0.000402
      dxy     :     0.000113
      f0      :     0.002405  f :     0.006500
      f+1     :     0.001652
      f-1     :     0.002315
      f+2     :     0.000055
      f-2     :     0.000016
      f+3     :     0.000028
      f-3     :     0.000029
      g0      :     0.000184  g :     0.000398
      g+1     :     0.000092
      g-1     :     0.000120
      g+2     :     0.000001
      g-2     :     0.000001
      g+3     :     0.000000
      g-3     :    -0.000000
      g+4     :     0.000000
      g-4     :     0.000000
  2 O s       :     3.949913  s :     3.949913
      pz      :     1.696287  p :     4.113456
      px      :     1.153375
      py      :     1.263795
      dz2     :     0.005686  d :     0.039767
      dxz     :     0.009960
      dyz     :     0.003267
      dx2y2   :     0.009728
      dxy     :     0.011127
      f0      :     0.000717  f :     0.006513
      f+1     :     0.001396
      f-1     :     0.000039
      f+2     :     0.001284
      f-2     :     0.001099
      f+3     :     0.000761
      f-3     :     0.001217
      g0      :     0.000037  g :     0.000399
      g+1     :     0.000061
      g-1     :     0.000004
      g+2     :     0.000060
      g-2     :     0.000004
      g+3     :     0.000083
      g-3     :     0.000067
      g+4     :     0.000037
      g-4     :     0.000046

SPIN
  0 O s       :     0.000050  s :     0.000050
      pz      :     0.011247  p :     0.000016
      px      :    -0.011246
      py      :     0.000014
      dz2     :    -0.000496  d :    -0.000030
      dxz     :     0.000424
      dyz     :    -0.001518
      dx2y2   :     0.000053
      dxy     :     0.001508
      f0      :     0.000001  f :    -0.000002
      f+1     :    -0.000003
      f-1     :    -0.000410
      f+2     :    -0.000016
      f-2     :     0.000086
      f+3     :     0.000018
      f-3     :     0.000323
      g0      :    -0.000012  g :    -0.000001
      g+1     :    -0.000002
      g-1     :    -0.000023
      g+2     :     0.000001
      g-2     :     0.000001
      g+3     :     0.000008
      g-3     :     0.000010
      g+4     :     0.000005
      g-4     :     0.000012
  1 O s       :    -0.004272  s :    -0.004272
      pz      :    -0.014427  p :    -0.500880
      px      :    -0.005330
      py      :    -0.481123
      dz2     :    -0.000309  d :     0.001861
      dxz     :    -0.000080
      dyz     :     0.002316
      dx2y2   :    -0.000104
      dxy     :     0.000038
      f0      :     0.000223  f :     0.000563
      f+1     :    -0.000005
      f-1     :     0.000404
      f+2     :    -0.000016
      f-2     :     0.000005
      f+3     :    -0.000023
      f-3     :    -0.000025
      g0      :     0.000003  g :     0.000021
      g+1     :     0.000000
      g-1     :     0.000018
      g+2     :     0.000000
      g-2     :     0.000000
      g+3     :     0.000000
      g-3     :     0.000000
      g+4     :     0.000000
      g-4     :     0.000000
  2 O s       :     0.004244  s :     0.004244
      pz      :     0.009372  p :     0.500887
      px      :     0.010388
      py      :     0.481128
      dz2     :    -0.000001  d :    -0.001873
      dxz     :    -0.000085
      dyz     :    -0.000285
      dx2y2   :     0.000574
      dxy     :    -0.002076
      f0      :     0.000055  f :    -0.000563
      f+1     :     0.000013
      f-1     :     0.000019
      f+2     :    -0.000109
      f-2     :    -0.000119
      f+3     :    -0.000138
      f-3     :    -0.000284
      g0      :     0.000001  g :    -0.000021
      g+1     :     0.000000
      g-1     :    -0.000000
      g+2     :    -0.000001
      g-2     :    -0.000000
      g+3     :    -0.000002
      g-3     :    -0.000008
      g+4     :    -0.000001
      g-4     :    -0.000010


                     *******************************
                     * LOEWDIN POPULATION ANALYSIS *
                     *******************************

-------------------------------------------
LOEWDIN ATOMIC CHARGES AND SPIN POPULATIONS
-------------------------------------------
   0 O :    0.030167   -0.000011
   1 O :   -0.015096   -0.464228
   2 O :   -0.015071    0.464239

----------------------------------------------------
LOEWDIN REDUCED ORBITAL CHARGES AND SPIN POPULATIONS
----------------------------------------------------
CHARGE
  0 O s       :     3.293618  s :     3.293618
      pz      :     1.295444  p :     4.004264
      px      :     1.427936
      py      :     1.280884
      dz2     :     0.178852  d :     0.551713
      dxz     :     0.189135
      dyz     :     0.084461
      dx2y2   :     0.061236
      dxy     :     0.038029
      f0      :     0.022670  f :     0.114614
      f+1     :     0.045688
      f-1     :     0.013096
      f+2     :     0.011431
      f-2     :     0.005447
      f+3     :     0.008467
      f-3     :     0.007814
      g0      :     0.001155  g :     0.005623
      g+1     :     0.001307
      g-1     :     0.000636
      g+2     :     0.000830
      g-2     :     0.000013
      g+3     :     0.000564
      g-3     :     0.000403
      g+4     :     0.000368
      g-4     :     0.000346
  1 O s       :     3.557151  s :     3.557151
      pz      :     1.181895  p :     4.216890
      px      :     1.807238
      py      :     1.227757
      dz2     :     0.097497  d :     0.186789
      dxz     :     0.046046
      dyz     :     0.042071
      dx2y2   :     0.000956
      dxy     :     0.000220
      f0      :     0.021744  f :     0.050924
      f+1     :     0.015461
      f-1     :     0.013444
      f+2     :     0.000142
      f-2     :     0.000058
      f+3     :     0.000046
      f-3     :     0.000028
      g0      :     0.001562  g :     0.003342
      g+1     :     0.000947
      g-1     :     0.000819
      g+2     :     0.000009
      g-2     :     0.000005
      g+3     :     0.000001
      g-3     :     0.000000
      g+4     :     0.000000
      g-4     :     0.000000
  2 O s       :     3.557123  s :     3.557123
      pz      :     1.652733  p :     4.216896
      px      :     1.336336
      py      :     1.227827
      dz2     :     0.030662  d :     0.186789
      dxz     :     0.054627
      dyz     :     0.009936
      dx2y2   :     0.059209
      dxy     :     0.032354
      f0      :     0.004903  f :     0.050921
      f+1     :     0.012748
      f-1     :     0.000068
      f+2     :     0.011098
      f-2     :     0.005894
      f+3     :     0.008647
      f-3     :     0.007565
      g0      :     0.000293  g :     0.003341
      g+1     :     0.000580
      g-1     :     0.000024
      g+2     :     0.000555
      g-2     :     0.000027
      g+3     :     0.000699
      g-3     :     0.000437
      g+4     :     0.000391
      g-4     :     0.000336

SPIN
  0 O s       :     0.000000  s :     0.000000
      pz      :     0.008443  p :    -0.000007
      px      :    -0.008446
      py      :    -0.000004
      dz2     :    -0.002764  d :    -0.000004
      dxz     :     0.002020
      dyz     :    -0.018213
      dx2y2   :     0.000741
      dxy     :     0.018211
      f0      :    -0.000383  f :     0.000000
      f+1     :    -0.000039
      f-1     :    -0.007382
      f+2     :     0.000250
      f-2     :     0.002970
      f+3     :     0.000172
      f-3     :     0.004413
      g0      :    -0.000031  g :    -0.000000
      g+1     :    -0.000014
      g-1     :    -0.000450
      g+2     :     0.000010
      g-2     :     0.000008
      g+3     :     0.000024
      g-3     :     0.000238
      g+4     :     0.000011
      g-4     :     0.000203
  1 O s       :    -0.005047  s :    -0.005047
      pz      :    -0.008773  p :    -0.454795
      px      :    -0.005873
      py      :    -0.440149
      dz2     :    -0.000279  d :    -0.003474
      dxz     :    -0.000420
      dyz     :    -0.002752
      dx2y2   :    -0.000105
      dxy     :     0.000083
      f0      :     0.000392  f :    -0.000861
      f+1     :    -0.000181
      f-1     :    -0.001030
      f+2     :    -0.000015
      f-2     :     0.000016
      f+3     :    -0.000023
      f-3     :    -0.000021
      g0      :     0.000021  g :    -0.000052
      g+1     :    -0.000010
      g-1     :    -0.000065
      g+2     :     0.000000
      g-2     :     0.000002
      g+3     :    -0.000000
      g-3     :    -0.000000
      g+4     :     0.000000
      g-4     :     0.000000
  2 O s       :     0.005046  s :     0.005046
      pz      :     0.008514  p :     0.454806
      px      :     0.006137
      py      :     0.440155
      dz2     :     0.000033  d :     0.003473
      dxz     :    -0.000169
      dyz     :     0.001222
      dx2y2   :     0.000941
      dxy     :     0.001446
      f0      :     0.000001  f :     0.000863
      f+1     :     0.000096
      f-1     :     0.000011
      f+2     :    -0.000153
      f-2     :     0.000547
      f+3     :    -0.000117
      f-3     :     0.000478
      g0      :     0.000002  g :     0.000051
      g+1     :    -0.000005
      g-1     :     0.000001
      g+2     :     0.000003
      g-2     :     0.000004
      g+3     :    -0.000009
      g-3     :     0.000042
      g+4     :    -0.000002
      g-4     :     0.000016


                      *****************************
                      * MAYER POPULATION ANALYSIS *
                      *****************************

  NA   - Mulliken gross atomic population
  ZA   - Total nuclear charge
  QA   - Mulliken gross atomic charge
  VA   - Mayer's total valence
  BVA  - Mayer's bonded valence
  FA   - Mayer's free valence

  ATOM       NA         ZA         QA         VA         BVA        FA
  0 O      7.7785     8.0000     0.2215     2.7048     2.6958     0.0090
  1 O      8.1114     8.0000    -0.1114     1.9145     1.6771     0.2373
  2 O      8.1100     8.0000    -0.1100     1.9144     1.6771     0.2373

  Mayer bond orders larger than 0.1
B(  0-O ,  1-O ) :   1.3479 B(  0-O ,  2-O ) :   1.3478 B(  1-O ,  2-O ) :   0.3292 


-------
TIMINGS
-------

Total SCF time: 0 days 0 hours 0 min 34 sec 

Total time                  ....      34.898 sec
Sum of individual times     ....      34.812 sec  ( 99.8%)

Fock matrix formation       ....       2.846 sec  (  8.2%)
  XC integration            ....       0.261 sec  (  9.2% of F)
    Basis function eval.    ....       0.022 sec  (  8.5% of XC)
    Density eval.           ....       0.040 sec  ( 15.3% of XC)
    XC-Functional eval.     ....       0.007 sec  (  2.7% of XC)
    XC-Potential eval.      ....       0.142 sec  ( 54.5% of XC)
Diagonalization             ....       0.026 sec  (  0.1%)
Density matrix formation    ....       0.001 sec  (  0.0%)
Population analysis         ....       0.017 sec  (  0.0%)
Initial guess               ....       0.044 sec  (  0.1%)
Orbital Transformation      ....       0.000 sec  (  0.0%)
Orbital Orthonormalization  ....       0.034 sec  (  0.1%)
DIIS solution               ....       0.004 sec  (  0.0%)
Grid generation             ....       0.130 sec  (  0.4%)
SCF Stability Analysis      ....      31.743 sec  ( 91.0%)

-------------------------   --------------------
FINAL SINGLE POINT ENERGY      -225.436582115711
-------------------------   --------------------


                            ***************************************
                            *     ORCA property calculations      *
                            ***************************************

                                    ---------------------
                                    Active property flags
                                    ---------------------
   (+) Dipole Moment


------------------------------------------------------------------------------
                       ORCA ELECTRIC PROPERTIES CALCULATION
------------------------------------------------------------------------------

Dipole Moment Calculation                       ... on
Quadrupole Moment Calculation                   ... off
Polarizability Calculation                      ... off
GBWName                                         ... mol_job2.gbw
Electron density file                           ... mol_job2.scfp.tmp
The origin for moment calculation is the CENTER OF MASS  = ( 0.711375,  0.000000  0.434922)

-------------
DIPOLE MOMENT
-------------
                                X             Y             Z
Electronic contribution:     -0.18335       0.00000      -0.11269
Nuclear contribution   :      0.00000       0.00000       0.00000
                        -----------------------------------------
Total Dipole Moment    :     -0.18335       0.00000      -0.11269
                        -----------------------------------------
Magnitude (a.u.)       :      0.21522
Magnitude (Debye)      :      0.54703


Timings for individual modules:

Sum of individual times         ...       35.720 sec (=   0.595 min)
GTO integral calculation        ...        0.606 sec (=   0.010 min)   1.7 %
SCF iterations                  ...       35.114 sec (=   0.585 min)  98.3 %



                             ****ORCA TERMINATED NORMALLY****
TOTAL RUN TIME: 0 days 0 hours 1 minutes 52 seconds 482 msec
