[Molden Format]
[Title]
 Molden file created by orca_2mkl for BaseName=mol

[Atoms] AU
O    1   8          0.0000000000         0.0000000000         0.0000000000 
O    2   8          0.0000000000         0.0000000000         2.3977107670 
O    3   8          2.1341240543         0.0000000000        -1.0929462215 
[GTO]
  1 0
s   8 1.0 
   116506.4690800000         0.3235419685
    17504.3497240000         0.6042835475
     3993.4513230000         1.0429472236
     1133.0063186000         1.6941353662
      369.9956959400         2.5856161023
      133.6207434900         3.6314499848
       52.0356436490         4.4144144942
       21.4619393130         4.1880224970
s   2 1.0 
       89.8350512520         1.9725266359
       26.4280108440         7.6872490204
s   1 1.0 
        9.2822824649         3.7901044380
s   1 1.0 
        4.0947728533         2.0515516431
s   1 1.0 
        1.3255349078         0.8804475093
s   1 1.0 
        0.5187723079         0.4356549784
s   1 1.0 
        0.1977267645         0.2113290434
p   5 1.0 
      191.1525581000         2.5692548920
       45.2333567390         3.3833083852
       14.3534659220         3.7640092455
        5.2422371832         3.4955156583
        2.0792418599         2.4367726703
p   1 1.0 
        0.8428237142         1.1510946124
p   1 1.0 
        0.3361769489         0.3648799519
p   1 1.0 
        0.1286399797         0.1098145893
d   1 1.0 
        3.7750000000        29.1457178613
d   1 1.0 
        1.3000000000         4.5120193149
d   1 1.0 
        0.4440000000         0.6884783394
f   1 1.0 
        2.6660000000        51.7827851834
f   1 1.0 
        0.8590000000         4.0502767393
g   1 1.0 
        1.8460000000        35.5309331412

  2 0
s   8 1.0 
   116506.4690800000         0.3235419685
    17504.3497240000         0.6042835475
     3993.4513230000         1.0429472236
     1133.0063186000         1.6941353662
      369.9956959400         2.5856161023
      133.6207434900         3.6314499848
       52.0356436490         4.4144144942
       21.4619393130         4.1880224970
s   2 1.0 
       89.8350512520         1.9725266359
       26.4280108440         7.6872490204
s   1 1.0 
        9.2822824649         3.7901044380
s   1 1.0 
        4.0947728533         2.0515516431
s   1 1.0 
        1.3255349078         0.8804475093
s   1 1.0 
        0.5187723079         0.4356549784
s   1 1.0 
        0.1977267645         0.2113290434
p   5 1.0 
      191.1525581000         2.5692548920
       45.2333567390         3.3833083852
       14.3534659220         3.7640092455
        5.2422371832         3.4955156583
        2.0792418599         2.4367726703
p   1 1.0 
        0.8428237142         1.1510946124
p   1 1.0 
        0.3361769489         0.3648799519
p   1 1.0 
        0.1286399797         0.1098145893
d   1 1.0 
        3.7750000000        29.1457178613
d   1 1.0 
        1.3000000000         4.5120193149
d   1 1.0 
        0.4440000000         0.6884783394
f   1 1.0 
        2.6660000000        51.7827851834
f   1 1.0 
        0.8590000000         4.0502767393
g   1 1.0 
        1.8460000000        35.5309331412

  3 0
s   8 1.0 
   116506.4690800000         0.3235419685
    17504.3497240000         0.6042835475
     3993.4513230000         1.0429472236
     1133.0063186000         1.6941353662
      369.9956959400         2.5856161023
      133.6207434900         3.6314499848
       52.0356436490         4.4144144942
       21.4619393130         4.1880224970
s   2 1.0 
       89.8350512520         1.9725266359
       26.4280108440         7.6872490204
s   1 1.0 
        9.2822824649         3.7901044380
s   1 1.0 
        4.0947728533         2.0515516431
s   1 1.0 
        1.3255349078         0.8804475093
s   1 1.0 
        0.5187723079         0.4356549784
s   1 1.0 
        0.1977267645         0.2113290434
p   5 1.0 
      191.1525581000         2.5692548920
       45.2333567390         3.3833083852
       14.3534659220         3.7640092455
        5.2422371832         3.4955156583
        2.0792418599         2.4367726703
p   1 1.0 
        0.8428237142         1.1510946124
p   1 1.0 
        0.3361769489         0.3648799519
p   1 1.0 
        0.1286399797         0.1098145893
d   1 1.0 
        3.7750000000        29.1457178613
d   1 1.0 
        1.3000000000         4.5120193149
d   1 1.0 
        0.4440000000         0.6884783394
f   1 1.0 
        2.6660000000        51.7827851834
f   1 1.0 
        0.8590000000         4.0502767393
g   1 1.0 
        1.8460000000        35.5309331412

[5D]
[9G]
[MO]
 Sym=     1a
 Ene= -1.94119289545714E+01
 Spin= Alpha
 Occup= 1.000000
  1       0.564010922507
  2      -0.005158612505
  3       0.360398926098
  4       0.171551420362
  5       0.013487233473
  6      -0.005557664347
  7      -0.002045609482
  8       0.001883148694
  9       0.000000000000
 10       0.001165576391
 11      -0.001557072909
 12       0.000000000000
 13      -0.000950723656
 14      -0.000753358748
 15      -0.000000000000
 16      -0.000431110382
 17      -0.000263073345
 18       0.000000000000
 19      -0.000157417320
 20       0.000111635205
 21      -0.000089545372
 22      -0.000000000000
 23       0.000062271477
 24      -0.000000000000
 25      -0.000133813865
 26       0.000089237529
 27       0.000000000000
 28      -0.000132874434
 29       0.000000000000
 30      -0.000678748155
 31       0.000680037693
 32      -0.000000000000
 33      -0.000510878631
 34      -0.000000000000
 35       0.000081382454
 36       0.000001357899
 37       0.000000000000
 38      -0.000053992167
 39      -0.000000000000
 40      -0.000037308792
 41      -0.000000000000
 42      -0.000448986862
 43      -0.000004015234
 44      -0.000000000000
 45       0.000225375783
 46       0.000000000000
 47       0.000167811499
 48       0.000000000000
 49      -0.000053201411
 50      -0.000042877528
 51      -0.000000000000
 52      -0.000005768644
 53      -0.000000000000
 54      -0.000038646665
 55      -0.000000000000
 56       0.000029978189
 57       0.000000000000
 58       0.000326365081
 59       0.000015629722
 60       0.000140535917
 61       0.000284185692
 62      -0.000756529203
 63       0.001644465538
 64       0.001324773357
 65      -0.000011370154
 66       0.000000000000
 67       0.000093128136
 68       0.000019955595
 69      -0.000000000000
 70      -0.000540475747
 71      -0.000123933789
 72       0.000000000000
 73      -0.001659741153
 74       0.000048914959
 75      -0.000000000000
 76      -0.000021967640
 77      -0.000059488210
 78       0.000011324824
 79      -0.000000000000
 80       0.000001566328
 81       0.000000000000
 82       0.000266196064
 83      -0.000025121398
 84       0.000000000000
 85      -0.000007129792
 86      -0.000000000000
 87       0.000792970897
 88       0.000072295422
 89      -0.000000000000
 90      -0.000001283893
 91       0.000000000000
 92       0.000000072673
 93      -0.000005266793
 94      -0.000000000000
 95      -0.000000589227
 96       0.000000000000
 97       0.000000657873
 98      -0.000000000000
 99      -0.000266447228
100       0.000039244862
101       0.000000000000
102       0.000013854841
103      -0.000000000000
104      -0.000002467217
105       0.000000000000
106       0.000039100216
107      -0.000034264868
108      -0.000000000000
109      -0.000011745354
110       0.000000000000
111       0.000002608589
112       0.000000000000
113       0.000000086562
114      -0.000000000000
115       0.000305707016
116       0.000016119050
117       0.000126593977
118       0.000280476239
119      -0.000761770844
120       0.001662266977
121       0.001340989152
122       0.000077553071
123      -0.000000000000
124      -0.000052499924
125      -0.000475741989
126      -0.000000000000
127       0.000267105362
128      -0.001548523885
129       0.000000000000
130       0.000653587725
131       0.000001421190
132      -0.000000000000
133       0.000053353602
134       0.000004096816
135       0.000048715424
136      -0.000000000000
137      -0.000034932189
138       0.000000000000
139      -0.000035772525
140      -0.000204845448
141      -0.000000000000
142       0.000169740235
143       0.000000000000
144      -0.000200494466
145      -0.000518535031
146       0.000000000000
147       0.000578266911
148      -0.000000000000
149      -0.000000035309
150       0.000004231893
151      -0.000000000000
152      -0.000001682805
153       0.000000000000
154       0.000002527257
155       0.000000000000
156      -0.000125138353
157      -0.000036835350
158       0.000000000000
159       0.000198909564
160      -0.000000000000
161       0.000126200595
162      -0.000000000000
163      -0.000025721636
164       0.000014780523
165      -0.000000000000
166       0.000032640895
167      -0.000000000000
168       0.000028529448
169      -0.000000000000
170       0.000000361966
171       0.000000000000
 Sym=     1a
 Ene= -1.92604571842940E+01
 Spin= Alpha
 Occup= 1.000000
  1      -0.000338699683
  2       0.000031343499
  3      -0.000318280064
  4       0.000177417433
  5      -0.001082367287
  6       0.002245971429
  7       0.002253178708
  8      -0.000105979123
  9      -0.000000000000
 10       0.000036912636
 11       0.000475982345
 12       0.000000000000
 13      -0.000111262856
 14       0.002739326693
 15      -0.000000000000
 16      -0.001897778557
 17       0.000007960112
 18       0.000000000000
 19       0.000127668408
 20      -0.000000901722
 21       0.000050080380
 22      -0.000000000000
 23      -0.000044407587
 24       0.000000000000
 25       0.000006144420
 26      -0.000195594358
 27       0.000000000000
 28       0.000175092547
 29      -0.000000000000
 30      -0.000528750945
 31      -0.000937846806
 32       0.000000000000
 33       0.000986069146
 34      -0.000000000000
 35       0.000009306379
 36       0.000006474968
 37       0.000000000000
 38       0.000008092172
 39      -0.000000000000
 40       0.000012543791
 41       0.000000000000
 42       0.000126789249
 43      -0.000026710147
 44      -0.000000000000
 45      -0.000266997195
 46       0.000000000000
 47      -0.000239367667
 48       0.000000000000
 49      -0.000010284415
 50       0.000032777973
 51      -0.000000000000
 52       0.000010374682
 53      -0.000000000000
 54       0.000040763798
 55      -0.000000000000
 56      -0.000029230940
 57       0.000000000000
 58      -0.000283249248
 59       0.000012768530
 60      -0.000212596645
 61      -0.000007357415
 62      -0.000187930612
 63       0.000547668470
 64      -0.000028150288
 65      -0.000009243417
 66      -0.000000000000
 67       0.000005220342
 68       0.000040956002
 69       0.000000000000
 70      -0.000048452678
 71      -0.000076781240
 72      -0.000000000000
 73      -0.000343237789
 74       0.000047075685
 75       0.000000000000
 76       0.000063444242
 77       0.000007754548
 78       0.000004539613
 79       0.000000000000
 80      -0.000000664709
 81      -0.000000000000
 82      -0.000029782430
 83      -0.000019725355
 84      -0.000000000000
 85       0.000003857703
 86      -0.000000000000
 87       0.000089848642
 88       0.000012577214
 89       0.000000000000
 90      -0.000039186720
 91       0.000000000000
 92      -0.000002013422
 93       0.000000434822
 94       0.000000000000
 95      -0.000008672017
 96       0.000000000000
 97       0.000002183134
 98      -0.000000000000
 99       0.000037199160
100       0.000008471413
101      -0.000000000000
102       0.000028148487
103       0.000000000000
104      -0.000004928271
105       0.000000000000
106      -0.000007785208
107      -0.000001114293
108       0.000000000000
109       0.000002931312
110       0.000000000000
111      -0.000002248828
112       0.000000000000
113      -0.000000637589
114      -0.000000000000
115       0.563830491065
116      -0.005191448918
117       0.360078513974
118       0.172182517249
119       0.013169948221
120      -0.004832900314
121      -0.001698121530
122      -0.001625896466
123       0.000000000000
124       0.000910893756
125       0.001408858127
126      -0.000000000000
127      -0.000796011631
128       0.002045150609
129       0.000000000000
130      -0.001031777394
131       0.000207688249
132      -0.000000000000
133      -0.000157444748
134      -0.000259168972
135      -0.000188397025
136       0.000000000000
137      -0.000217130653
138       0.000000000000
139       0.000121102143
140       0.000241887565
141      -0.000000000000
142      -0.000083856888
143      -0.000000000000
144       0.000192411673
145       0.000876910821
146       0.000000000000
147      -0.000860067686
148      -0.000000000000
149      -0.000023458087
150      -0.000002134556
151      -0.000000000000
152       0.000036785595
153       0.000000000000
154       0.000029845612
155       0.000000000000
156       0.000172674637
157       0.000024803985
158       0.000000000000
159      -0.000266914175
160      -0.000000000000
161      -0.000197560116
162      -0.000000000000
163       0.000017033209
164      -0.000032670115
165      -0.000000000000
166      -0.000017628229
167       0.000000000000
168      -0.000045726616
169      -0.000000000000
170       0.000030918138
171       0.000000000000
 Sym=     1a
 Ene= -1.92464006597834E+01
 Spin= Alpha
 Occup= 1.000000
  1       0.000360970890
  2      -0.000032529930
  3       0.000337907505
  4      -0.000191627154
  5       0.001201056860
  6      -0.002465802815
  7      -0.002504433434
  8       0.000019104783
  9      -0.000000000000
 10       0.000133632746
 11      -0.000132388808
 12       0.000000000000
 13      -0.000531786102
 14       0.000313941707
 15       0.000000000000
 16      -0.003392794919
 17      -0.000148830798
 18      -0.000000000000
 19       0.000052336421
 20       0.000080973849
 21      -0.000013920382
 22      -0.000000000000
 23       0.000009604761
 24       0.000000000000
 25      -0.000301238661
 26       0.000055714867
 27      -0.000000000000
 28      -0.000035393612
 29      -0.000000000000
 30      -0.001500011374
 31      -0.000212339093
 32       0.000000000000
 33       0.000120215648
 34      -0.000000000000
 35       0.000006610904
 36       0.000007681676
 37      -0.000000000000
 38       0.000013531560
 39      -0.000000000000
 40       0.000007823953
 41       0.000000000000
 42      -0.000429553078
 43      -0.000036689244
 44       0.000000000000
 45      -0.000034631342
 46       0.000000000000
 47      -0.000020118195
 48       0.000000000000
 49      -0.000078068424
 50      -0.000005118747
 51       0.000000000000
 52      -0.000000993671
 53      -0.000000000000
 54      -0.000001316371
 55      -0.000000000000
 56       0.000002113577
 57      -0.000000000000
 58      -0.564093974449
 59       0.005111160427
 60      -0.360495525059
 61      -0.171397081262
 62      -0.013081542883
 63       0.005124428935
 64       0.001723749654
 65      -0.000068361545
 66      -0.000000000000
 67       0.001862325196
 68       0.000067884326
 69       0.000000000000
 70      -0.001713018571
 71      -0.000002993047
 72      -0.000000000000
 73      -0.002387207057
 74       0.000042933587
 75       0.000000000000
 76      -0.000232260790
 77      -0.000402431421
 78       0.000008686060
 79      -0.000000000000
 80      -0.000244698678
 81      -0.000000000000
 82       0.000389800684
 83      -0.000022619705
 84       0.000000000000
 85       0.000018811665
 86      -0.000000000000
 87       0.001223894845
 88      -0.000032840328
 89       0.000000000000
 90      -0.000060784614
 91       0.000000000000
 92       0.000051953229
 93      -0.000001549024
 94       0.000000000000
 95       0.000005941925
 96      -0.000000000000
 97      -0.000000294783
 98       0.000000000000
 99      -0.000404574716
100       0.000021760864
101      -0.000000000000
102       0.000005350090
103       0.000000000000
104       0.000002533501
105       0.000000000000
106       0.000081228197
107      -0.000004843569
108       0.000000000000
109      -0.000000006151
110       0.000000000000
111      -0.000001529031
112       0.000000000000
113      -0.000005843586
114      -0.000000000000
115      -0.000276440217
116      -0.000006554991
117      -0.000148509614
118      -0.000153903279
119       0.000146408431
120      -0.000513630713
121       0.000234380329
122       0.000001850155
123       0.000000000000
124       0.000010585387
125       0.000023975490
126       0.000000000000
127      -0.000068291072
128       0.000215741614
129       0.000000000000
130       0.000004064047
131      -0.000095636431
132       0.000000000000
133       0.000003663886
134       0.000006766531
135       0.000003162011
136       0.000000000000
137      -0.000007226727
138       0.000000000000
139      -0.000028664206
140      -0.000010436363
141      -0.000000000000
142       0.000028258465
143       0.000000000000
144       0.000061044211
145       0.000017065138
146       0.000000000000
147      -0.000006096344
148      -0.000000000000
149      -0.000004433810
150       0.000005290991
151       0.000000000000
152      -0.000001024124
153      -0.000000000000
154      -0.000007984684
155       0.000000000000
156      -0.000003977315
157      -0.000010095913
158      -0.000000000000
159       0.000031654273
160       0.000000000000
161       0.000049894611
162      -0.000000000000
163      -0.000001205568
164       0.000006825066
165      -0.000000000000
166       0.000002162446
167       0.000000000000
168       0.000007715186
169      -0.000000000000
170      -0.000000469043
171       0.000000000000
 Sym=     1a
 Ene= -1.36056267519749E+00
 Spin= Alpha
 Occup= 1.000000
  1       0.098777310861
  2       0.014832763243
  3       0.116352030591
  4       0.060055723392
  5      -0.243982468763
  6      -0.391892542052
  7      -0.106895541772
  8      -0.058242378502
  9       0.000000000000
 10      -0.032851960799
 11      -0.063022389403
 12       0.000000000000
 13      -0.035898003133
 14      -0.030025478321
 15      -0.000000000000
 16      -0.019592210337
 17      -0.001428364703
 18       0.000000000000
 19      -0.000956237592
 20      -0.000765233888
 21       0.000456538756
 22      -0.000000000000
 23      -0.000871328550
 24       0.000000000000
 25      -0.006712907258
 26       0.005164473862
 27       0.000000000000
 28      -0.007108381528
 29      -0.000000000000
 30      -0.007075232119
 31       0.005061191785
 32      -0.000000000000
 33      -0.005293178593
 34       0.000000000000
 35      -0.001350336470
 36      -0.000060196240
 37       0.000000000000
 38       0.000729674063
 39       0.000000000000
 40       0.000646659246
 41       0.000000000000
 42      -0.005917775970
 43      -0.000170653477
 44      -0.000000000000
 45       0.003496411232
 46      -0.000000000000
 47       0.002412155452
 48      -0.000000000000
 49      -0.000814803100
 50      -0.000782593295
 51      -0.000000000000
 52       0.000034210415
 53       0.000000000000
 54      -0.000737154797
 55       0.000000000000
 56       0.000545230808
 57      -0.000000000000
 58       0.047959042119
 59       0.007197031719
 60       0.055933897825
 61       0.029330935234
 62      -0.115830004717
 63      -0.176128785403
 64      -0.039744593712
 65      -0.004360042562
 66       0.000000000000
 67       0.062370233149
 68      -0.004739571665
 69      -0.000000000000
 70       0.060977510484
 71      -0.002891469421
 72       0.000000000000
 73       0.025400828355
 74       0.000009415590
 75      -0.000000000000
 76      -0.000013943879
 77      -0.001969175355
 78       0.000132098654
 79       0.000000000000
 80      -0.000371103186
 81      -0.000000000000
 82      -0.011743701614
 83       0.001489306720
 84      -0.000000000000
 85      -0.000531856204
 86       0.000000000000
 87      -0.007118254886
 88       0.001654751325
 89      -0.000000000000
 90       0.000122128606
 91      -0.000000000000
 92       0.001418079268
 93      -0.000147043449
 94      -0.000000000000
 95       0.000140762155
 96       0.000000000000
 97       0.000021789605
 98      -0.000000000000
 99       0.003323468778
100      -0.000822760355
101       0.000000000000
102      -0.000092744343
103      -0.000000000000
104      -0.000054007104
105       0.000000000000
106      -0.000904942334
107       0.000135378734
108      -0.000000000000
109      -0.000061772282
110       0.000000000000
111       0.000011823630
112       0.000000000000
113      -0.000050860713
114      -0.000000000000
115       0.054098205488
116       0.008052961884
117       0.063294162750
118       0.033292963614
119      -0.132797956445
120      -0.203047940057
121      -0.046300756903
122       0.056369909088
123      -0.000000000000
124      -0.033789680326
125       0.056069481600
126       0.000000000000
127      -0.034196447408
128       0.022608206711
129      -0.000000000000
130      -0.014799755934
131       0.000129106149
132       0.000000000000
133      -0.000001489654
134       0.000474396767
135       0.001336552731
136       0.000000000000
137      -0.000772299054
138      -0.000000000000
139       0.002298015033
140       0.009530940203
141      -0.000000000000
142      -0.005881195962
143       0.000000000000
144       0.001151191920
145       0.006143286838
146       0.000000000000
147      -0.002759451383
148       0.000000000000
149       0.000696996293
150       0.000107621440
151       0.000000000000
152      -0.000918701186
153      -0.000000000000
154      -0.000504158998
155      -0.000000000000
156       0.001679184544
157       0.000771687544
158      -0.000000000000
159      -0.002382526784
160       0.000000000000
161      -0.001266316962
162       0.000000000000
163       0.000261926083
164      -0.000372542283
165      -0.000000000000
166      -0.000281314621
167       0.000000000000
168      -0.000588468599
169       0.000000000000
170       0.000404127315
171      -0.000000000000
 Sym=     1a
 Ene= -1.09736646625776E+00
 Spin= Alpha
 Occup= 1.000000
  1       0.006684501118
  2       0.000983708013
  3       0.008064284316
  4       0.003795934032
  5      -0.016254164278
  6      -0.029298864835
  7      -0.012313603438
  8       0.085677676647
  9       0.000000000000
 10      -0.143844158163
 11       0.080558228159
 12      -0.000000000000
 13      -0.136689550427
 14       0.037635514733
 15       0.000000000000
 16      -0.064606986227
 17       0.002034470824
 18      -0.000000000000
 19      -0.003402309339
 20      -0.002679721006
 21      -0.001615451027
 22      -0.000000000000
 23       0.001590465633
 24       0.000000000000
 25      -0.014858437360
 26      -0.008504328597
 27       0.000000000000
 28       0.008495476364
 29      -0.000000000000
 30      -0.008883571356
 31      -0.004359615964
 32       0.000000000000
 33       0.005169393267
 34       0.000000000000
 35      -0.000795967174
 36       0.000290940279
 37       0.000000000000
 38      -0.001013690820
 39       0.000000000000
 40      -0.000723351579
 41       0.000000000000
 42      -0.001795243805
 43       0.000978332062
 44       0.000000000000
 45      -0.001436161350
 46      -0.000000000000
 47      -0.001121318735
 48      -0.000000000000
 49      -0.001157042717
 50       0.000542363041
 51       0.000000000000
 52       0.000466469588
 53       0.000000000000
 54       0.000631995346
 55       0.000000000000
 56      -0.000317743595
 57      -0.000000000000
 58       0.077874788220
 59       0.011733225075
 60       0.092195173708
 61       0.046681697762
 62      -0.190795757922
 63      -0.313298587595
 64      -0.123135986614
 65       0.008031254445
 66       0.000000000000
 67       0.063064531740
 68       0.007410070872
 69       0.000000000000
 70       0.065842387045
 71       0.004712181689
 72      -0.000000000000
 73       0.041066870543
 74       0.000652028804
 75       0.000000000000
 76       0.003253617993
 77      -0.001629602337
 78      -0.000267165216
 79      -0.000000000000
 80      -0.000664531960
 81       0.000000000000
 82      -0.012272991997
 83      -0.001508763590
 84       0.000000000000
 85      -0.000381002741
 86      -0.000000000000
 87      -0.011955416992
 88      -0.001381791559
 89       0.000000000000
 90      -0.000159237732
 91       0.000000000000
 92       0.001181900422
 93       0.000213116404
 94       0.000000000000
 95       0.000161783563
 96       0.000000000000
 97      -0.000009107572
 98       0.000000000000
 99       0.004222640129
100       0.000582661879
101      -0.000000000000
102      -0.000617143071
103       0.000000000000
104       0.000005894596
105      -0.000000000000
106      -0.000981301831
107      -0.000129725961
108       0.000000000000
109       0.000138006554
110       0.000000000000
111      -0.000002211079
112      -0.000000000000
113      -0.000090736691
114       0.000000000000
115      -0.082800046713
116      -0.012378387965
117      -0.098322126021
118      -0.050010016373
119       0.206673042558
120       0.337768224383
121       0.132780246124
122      -0.053185210220
123      -0.000000000000
124       0.017920505106
125      -0.057093449116
126       0.000000000000
127       0.020439417673
128      -0.035041529941
129      -0.000000000001
130       0.012315852327
131      -0.003370603915
132       0.000000000000
133       0.000938185681
134      -0.000717772659
135      -0.000546491053
136       0.000000000000
137       0.000136190696
138      -0.000000000000
139      -0.005347578340
140      -0.007096512919
141       0.000000000000
142       0.004867114238
143      -0.000000000000
144      -0.004689540810
145      -0.006699576808
146      -0.000000000000
147       0.005355171641
148       0.000000000000
149      -0.000477173953
150       0.000227052411
151      -0.000000000000
152       0.000541779719
153       0.000000000000
154       0.000387678821
155      -0.000000000000
156      -0.002122927169
157       0.000693707325
158       0.000000000000
159       0.002597049216
160       0.000000000000
161       0.001934925915
162       0.000000000000
163      -0.000137488650
164       0.000591660697
165       0.000000000000
166       0.000093401946
167      -0.000000000000
168       0.000561308006
169       0.000000000000
170      -0.000384550345
171      -0.000000000000
 Sym=     1a
 Ene= -7.86244765044454E-01
 Spin= Alpha
 Occup= 1.000000
  1      -0.079467240434
  2      -0.012016619058
  3      -0.096737134393
  4      -0.046108592474
  5       0.205458464747
  6       0.377164945573
  7       0.211258109022
  8      -0.062607238705
  9       0.000000000000
 10      -0.060323963201
 11      -0.050974668901
 12      -0.000000000000
 13      -0.051408013512
 14      -0.038756086276
 15       0.000000000000
 16      -0.037476535118
 17      -0.007960550110
 18       0.000000000000
 19      -0.006812291567
 20      -0.000881742965
 21       0.000079358069
 22       0.000000000000
 23      -0.000962037068
 24       0.000000000000
 25      -0.001519441601
 26      -0.003138911324
 27       0.000000000000
 28      -0.002879253655
 29      -0.000000000000
 30      -0.001191287550
 31      -0.003940642183
 32      -0.000000000000
 33      -0.002861283303
 34       0.000000000000
 35      -0.000656196459
 36       0.000056490243
 37       0.000000000000
 38       0.000150330021
 39      -0.000000000000
 40       0.000149786715
 41      -0.000000000000
 42       0.000699909679
 43       0.000021214540
 44      -0.000000000000
 45      -0.001210250472
 46      -0.000000000000
 47      -0.000391429322
 48      -0.000000000000
 49      -0.000020609824
 50      -0.000010463109
 51      -0.000000000000
 52       0.000160391479
 53      -0.000000000000
 54       0.000226920494
 55       0.000000000000
 56      -0.000062296950
 57      -0.000000000000
 58       0.074056736495
 59       0.011202391258
 60       0.089270634543
 61       0.043263458256
 62      -0.186361713402
 63      -0.322865977545
 64      -0.202122244917
 65      -0.018096162815
 66       0.000000000000
 67      -0.052625391108
 68      -0.017090732703
 69      -0.000000000000
 70      -0.043368067767
 71      -0.013286766560
 72       0.000000000000
 73      -0.022204663335
 74      -0.003417686862
 75       0.000000000000
 76      -0.007927220653
 77       0.001006428236
 78       0.000275667399
 79       0.000000000000
 80      -0.000721689374
 81       0.000000000000
 82       0.001608737340
 83       0.002513466780
 84      -0.000000000000
 85      -0.000812881590
 86       0.000000000000
 87      -0.000205001635
 88       0.003058712228
 89      -0.000000000000
 90      -0.001619451300
 91      -0.000000000000
 92      -0.000724757840
 93      -0.000226899303
 94      -0.000000000000
 95       0.000041402954
 96       0.000000000000
 97       0.000019259486
 98       0.000000000000
 99      -0.000058692935
100      -0.001305011056
101       0.000000000000
102       0.000244310499
103      -0.000000000000
104       0.000014626647
105      -0.000000000000
106      -0.000028748057
107       0.000282096830
108      -0.000000000000
109      -0.000029317006
110      -0.000000000000
111      -0.000025468803
112      -0.000000000000
113      -0.000088151034
114      -0.000000000000
115       0.072081422791
116       0.010794001287
117       0.087226275670
118       0.042222419675
119      -0.184482496033
120      -0.318203109621
121      -0.201125679420
122      -0.075889112337
123       0.000000000000
124       0.013375858564
125      -0.066153724206
126      -0.000000000000
127       0.009752981671
128      -0.039120265040
129       0.000000000000
130       0.001464453868
131      -0.010448880805
132      -0.000000000001
133       0.000693706574
134      -0.000264118397
135      -0.001018437489
136      -0.000000000000
137       0.001930835203
138       0.000000000000
139      -0.001271096971
140      -0.001098156616
141       0.000000000000
142       0.007050531471
143      -0.000000000000
144      -0.001847059729
145       0.000358499546