[Molden Format]
[Title]
 Molden file created by orca_2mkl for BaseName=mol

[Atoms] AU
Ga   1  31          0.0000000000         0.0000000000         0.0000000000 
[GTO]
  1 0
s  11 1.0 
  6623802.0274000000         0.7799538969
   987904.0707500000         1.4634797603
   224132.0589900000         2.5391626793
    63315.1929430000         4.1633935563
    20611.3127020000         6.5161968907
     7429.1672482000         9.7493586951
     2894.2071720000        13.7811088798
     1198.9915786000        17.8196120950
      521.8200381200        19.6545985326
      236.2754923700        16.1013644242
      109.9839567100         7.4531529361
s   4 1.0 
     2101.2587253000         1.5883999773
      650.9702251900         6.5334633339
      250.2243835600        14.7432715617
      108.1761662500        15.4024862719
s   1 1.0 
       51.0574867100        13.6130257795
s   1 1.0 
       23.6474745270         7.6427326350
s   1 1.0 
       11.3617011440         4.4105486142
s   1 1.0 
        5.0178135897         2.3894392028
s   1 1.0 
        2.4102674998         1.3786658744
s   1 1.0 
        1.0741046685         0.7519605301
s   1 1.0 
        0.2574507583         0.2575910229
s   1 1.0 
        0.1217522755         0.1468986847
s   1 1.0 
        0.0523605990         0.0780123835
p   9 1.0 
    14711.7504830000        25.9881331095
     3482.1451716000        37.9653741460
     1130.2186655000        52.7435845466
      431.5409344800        67.1219089697
      182.4172364800        75.5551881460
       82.7067536030        70.0982169177
       39.2281287720        48.2858001634
       19.2019799390        20.6889565029
        9.5056966689         3.9434606395
p   2 1.0 
       92.6156130220       -76.2236034870
       33.7501481650       -99.1355144523
p   4 1.0 
        7.3482283015         4.0811083347
        3.7813384844         3.3428654902
        2.3145183128         1.0967159605
        0.8034685971         0.1747455794
p   1 1.0 
        1.5423710087         2.4500568103
p   1 1.0 
        0.3291023964         0.3553071064
p   1 1.0 
        0.1183408883         0.0989369730
p   1 1.0 
        0.0416278777         0.0268021989
d   7 1.0 
      363.4956521800        87.7933901280
      109.0174958900        93.7072091665
       41.8664307150        83.2339563433
       17.8792798940        58.4417338285
        8.1201893671        30.8213303827
        3.7360611356        11.0997460419
        1.6826812549         2.7339971215
d   1 1.0 
        0.7265579050         1.6300202136
d   1 1.0 
        0.2849858508         0.3168916937
d   1 1.0 
        0.1120000000         0.0618161031
f   1 1.0 
        0.1810000000         0.1218363480
f   1 1.0 
        0.4710000000         1.0478451806
g   1 1.0 
        0.4032000000         0.5415653713

[5D]
[9G]
[MO]
 Sym=     1a
 Ene= -3.78817790085466E+02
 Spin= Alpha
 Occup= 1.000000
  1      -0.943821733543
  2       0.000202767662
  3      -0.079886044448
  4      -0.000819048147
  5      -0.001436216540
  6       0.000712576496
  7      -0.000320711237
  8       0.000131069184
  9      -0.000048801462
 10       0.000035218597
 11      -0.000010459413
 12       0.000000000000
 13       0.000000000000
 14      -0.000000000000
 15       0.000000000000
 16      -0.000000000000
 17      -0.000000000000
 18       0.000000000000
 19      -0.000000000000
 20      -0.000000000000
 21      -0.000000000000
 22      -0.000000000000
 23       0.000000000000
 24       0.000000000000
 25      -0.000000000000
 26      -0.000000000000
 27      -0.000000000000
 28       0.000000000000
 29       0.000000000000
 30       0.000000000000
 31      -0.000000000000
 32      -0.000000000000
 33       0.000000695715
 34      -0.000000000000
 35      -0.000000000000
 36      -0.000000000000
 37       0.000000000000
 38      -0.000000522700
 39       0.000000000000
 40      -0.000000000000
 41       0.000000000000
 42       0.000000000000
 43       0.000000104143
 44      -0.000000000000
 45      -0.000000000000
 46       0.000000000000
 47       0.000000000000
 48      -0.000000109918
 49       0.000000000000
 50      -0.000000000000
 51       0.000000000000
 52      -0.000000000000
 53       0.000000000000
 54      -0.000000000000
 55      -0.000000000000
 56       0.000000000000
 57      -0.000000000000
 58       0.000000000000
 59      -0.000000000000
 60      -0.000000000000
 61       0.000000000000
 62       0.000000000000
 63      -0.000000000000
 64       0.000000000000
 65       0.000000000000
 66       0.000000000000
 67      -0.000000001048
 68       0.000000000000
 69      -0.000000000000
 70      -0.000000000000
 71       0.000000000000
 72       0.000000000000
 73       0.000000000000
 74       0.000000000000
 75       0.000000000000
 Sym=     1a
 Ene= -4.81670674131128E+01
 Spin= Alpha
 Occup= 1.000000
  1      -0.295478277706
  2      -0.180202878345
  3       0.028794687962
  4       0.514790931783
  5       0.515143657846
  6       0.097543379404
  7      -0.002983724202
  8       0.002536819661
  9      -0.000589067445
 10       0.000418208374
 11      -0.000125357927
 12       0.000000000000
 13       0.000000000000
 14      -0.000000000000
 15       0.000000000000
 16      -0.000000000000
 17       0.000000000000
 18      -0.000000000000
 19      -0.000000000000
 20       0.000000000000
 21      -0.000000000000
 22      -0.000000000000
 23      -0.000000000000
 24       0.000000000000
 25      -0.000000000000
 26       0.000000000000
 27      -0.000000000000
 28       0.000000000000
 29      -0.000000000000
 30      -0.000000000000
 31      -0.000000000000
 32       0.000000000000
 33      -0.000027882902
 34      -0.000000000000
 35      -0.000000000000
 36      -0.000000000000
 37       0.000000000000
 38       0.000009496670
 39       0.000000000000
 40      -0.000000000000
 41       0.000000000000
 42       0.000000000000
 43      -0.000016426906
 44      -0.000000000000
 45      -0.000000000000
 46      -0.000000000000
 47       0.000000000000
 48       0.000002574389
 49       0.000000000000
 50      -0.000000000000
 51       0.000000000000
 52      -0.000000000000
 53       0.000000000000
 54       0.000000000000
 55      -0.000000000000
 56       0.000000000000
 57      -0.000000000000
 58       0.000000000000
 59      -0.000000000000
 60      -0.000000000000
 61       0.000000000000
 62       0.000000000000
 63      -0.000000000000
 64       0.000000000000
 65       0.000000000000
 66       0.000000000000
 67      -0.000000056358
 68      -0.000000000000
 69      -0.000000000000
 70      -0.000000000000
 71       0.000000000000
 72       0.000000000000
 73       0.000000000000
 74       0.000000000000
 75       0.000000000000
 Sym=     1a
 Ene= -4.24932649825361E+01
 Spin= Alpha
 Occup= 1.000000
  1       0.000000000000
  2       0.000000000000
  3       0.000000000000
  4      -0.000000000000
  5      -0.000000000000
  6       0.000000000000
  7      -0.000000000000
  8      -0.000000000000
  9      -0.000000000000
 10       0.000000000000
 11       0.000000000000
 12      -0.000000000000
 13       0.000000000000
 14       0.986289262742
 15      -0.000000000000
 16       0.000000000000
 17      -0.001477656412
 18       0.000000000000
 19      -0.000000000000
 20       0.033179764915
 21      -0.000000000000
 22       0.000000000000
 23      -0.010165962450
 24      -0.000000000000
 25      -0.000000000000
 26      -0.001926072906
 27      -0.000000000000
 28       0.000000000000
 29       0.000745883947
 30       0.000000000000
 31      -0.000000000000
 32      -0.000229243493
 33       0.000000000000
 34       0.000000000000
 35       0.000000000000
 36      -0.000000000000
 37      -0.000000000000
 38       0.000000000000
 39      -0.000000000000
 40      -0.000000000000
 41       0.000000000000
 42      -0.000000000000
 43       0.000000000000
 44       0.000000000000
 45      -0.000000000000
 46      -0.000000000000
 47      -0.000000000000
 48       0.000000000000
 49       0.000000000000
 50       0.000000000000
 51       0.000000000000
 52       0.000000000000
 53       0.000000466636
 54      -0.000000000000
 55       0.000000000000
 56       0.000000000000
 57       0.000000000000
 58       0.000000000000
 59       0.000000000000
 60      -0.000002793764
 61      -0.000000000000
 62      -0.000000000000
 63       0.000000000000
 64      -0.000000000000
 65       0.000000000000
 66       0.000000000000
 67      -0.000000000000
 68       0.000000000000
 69      -0.000000000000
 70       0.000000000000
 71      -0.000000000000
 72      -0.000000000000
 73      -0.000000000000
 74      -0.000000000000
 75       0.000000000000
 Sym=     1a
 Ene= -4.24931426053802E+01
 Spin= Alpha
 Occup= 1.000000
  1       0.000000000000
  2       0.000000000000
  3      -0.000000000000
  4      -0.000000000000
  5      -0.000000000000
  6       0.000000000000
  7       0.000000000000
  8      -0.000000000000
  9      -0.000000000000
 10      -0.000000000000
 11       0.000000000000
 12       0.000000000000
 13      -0.986242256519
 14      -0.000000000000
 15       0.000000000000
 16       0.001477454303
 17      -0.000000000000
 18      -0.000000000000
 19      -0.033327101669
 20       0.000000000000
 21       0.000000000000
 22       0.010258383142
 23      -0.000000000000
 24       0.000000000000
 25       0.001907470564
 26       0.000000000000
 27       0.000000000000
 28      -0.000733967225
 29      -0.000000000000
 30      -0.000000000000
 31       0.000224812641
 32       0.000000000000
 33      -0.000000000000
 34      -0.000000000000
 35       0.000000000000
 36       0.000000000000
 37       0.000000000000
 38       0.000000000000
 39       0.000000000000
 40       0.000000000000
 41       0.000000000000
 42      -0.000000000000
 43      -0.000000000000
 44      -0.000000000000
 45      -0.000000000000
 46      -0.000000000000
 47       0.000000000000
 48       0.000000000000
 49       0.000000000000
 50       0.000000000000
 51       0.000000000000
 52       0.000000000000
 53       0.000000000000
 54      -0.000000000000
 55      -0.000000426153
 56       0.000000000000
 57       0.000000000000
 58       0.000000000000
 59       0.000000000000
 60      -0.000000000000
 61       0.000000000000
 62       0.000002214800
 63      -0.000000000000
 64      -0.000000000000
 65      -0.000000000000
 66      -0.000000000000
 67       0.000000000000
 68      -0.000000000000
 69       0.000000000000
 70       0.000000000000
 71       0.000000000000
 72       0.000000000000
 73      -0.000000000000
 74       0.000000000000
 75       0.000000000000
 Sym=     1a
 Ene= -4.24931426053801E+01
 Spin= Alpha
 Occup= 1.000000
  1       0.000000000000
  2      -0.000000000000
  3      -0.000000000000
  4      -0.000000000000
  5       0.000000000000
  6      -0.000000000000
  7       0.000000000000
  8      -0.000000000000
  9      -0.000000000000
 10      -0.000000000000
 11       0.000000000000
 12      -0.986242256518
 13       0.000000000000
 14       0.000000000000
 15       0.001477454303
 16       0.000000000000
 17       0.000000000000
 18      -0.033327101669
 19      -0.000000000000
 20       0.000000000000
 21       0.010258383142
 22       0.000000000000
 23      -0.000000000000
 24       0.001907470564
 25      -0.000000000000
 26      -0.000000000000
 27      -0.000733967225
 28       0.000000000000
 29       0.000000000000
 30       0.000224812641
 31      -0.000000000000
 32      -0.000000000000
 33       0.000000000000
 34      -0.000000000000
 35       0.000000000000
 36       0.000000000000
 37      -0.000000000000
 38      -0.000000000000
 39      -0.000000000000
 40      -0.000000000000
 41      -0.000000000000
 42      -0.000000000000
 43      -0.000000000000
 44      -0.000000000000
 45       0.000000000000
 46       0.000000000000
 47       0.000000000000
 48      -0.000000000000
 49       0.000000000000
 50      -0.000000000000
 51      -0.000000000000
 52       0.000000000000
 53      -0.000000000000
 54      -0.000000426153
 55       0.000000000000
 56      -0.000000000000
 57       0.000000000000
 58      -0.000000000000
 59      -0.000000000000
 60       0.000000000000
 61       0.000002214800
 62       0.000000000000
 63       0.000000000000
 64       0.000000000000
 65      -0.000000000000
 66       0.000000000000
 67       0.000000000000
 68       0.000000000000
 69       0.000000000000
 70      -0.000000000000
 71       0.000000000000
 72      -0.000000000000
 73       0.000000000000
 74      -0.000000000000
 75       0.000000000000
 Sym=     1a
 Ene= -6.39376015373358E+00
 Spin= Alpha
 Occup= 1.000000
  1       0.112262672233
  2       0.081444731870
  3      -0.010688600676
  4      -0.322456733049
  5      -0.469158225014
  6       0.130817239909
  7       0.722930685615
  8       0.405500922858
  9       0.018526536352
 10      -0.007329068625
 11       0.001838660534
 12      -0.000000000000
 13      -0.000000000000
 14      -0.000000000000
 15      -0.000000000000
 16       0.000000000000
 17      -0.000000000000
 18       0.000000000000
 19      -0.000000000000
 20      -0.000000000000
 21      -0.000000000000
 22       0.000000000000
 23       0.000000000000
 24       0.000000000000
 25       0.000000000000
 26      -0.000000000000
 27      -0.000000000000
 28      -0.000000000000
 29       0.000000000000
 30       0.000000000000
 31      -0.000000000000
 32      -0.000000000000
 33      -0.000209734097
 34      -0.000000000000
 35       0.000000000000
 36       0.000000000000
 37      -0.000000000000
 38      -0.000929351059
 39      -0.000000000000
 40      -0.000000000000
 41      -0.000000000000
 42      -0.000000000000
 43       0.000608095859
 44      -0.000000000000
 45       0.000000000000
 46       0.000000000000
 47      -0.000000000000
 48      -0.000088302689
 49       0.000000000000
 50      -0.000000000000
 51      -0.000000000000
 52      -0.000000000000
 53      -0.000000000000
 54      -0.000000000000
 55      -0.000000000000
 56      -0.000000000000
 57       0.000000000000
 58      -0.000000000000
 59       0.000000000000
 60      -0.000000000000
 61      -0.000000000000
 62      -0.000000000000
 63       0.000000000000
 64       0.000000000000
 65       0.000000000000
 66       0.000000000000
 67       0.000000746405
 68       0.000000000000
 69       0.000000000000
 70       0.000000000000
 71      -0.000000000000
 72      -0.000000000000
 73      -0.000000000000
 74       0.000000000000
 75       0.000000000000
 Sym=     1a
 Ene= -4.48219714787059E+00
 Spin= Alpha
 Occup= 1.000000
  1      -0.000000000000
  2      -0.000000000000
  3      -0.000000000000
  4       0.000000000000
  5       0.000000000000
  6      -0.000000000000
  7       0.000000000000
  8      -0.000000000000
  9       0.000000000000
 10      -0.000000000000
 11      -0.000000000000
 12       0.381957572564
 13      -0.000000000000
 14      -0.000000000000
 15      -0.029619231985
 16      -0.000000000000
 17      -0.000000000000
 18      -0.812354539344
 19       0.000000000000
 20       0.000000000000
 21      -0.281591471628
 22      -0.000000000000
 23       0.000000000000
 24      -0.012192745044
 25       0.000000000000
 26      -0.000000000000
 27       0.000493223711
 28      -0.000000000000
 29      -0.000000000000
 30      -0.000269938416
 31       0.000000000000
 32      -0.000000000000
 33      -0.000000000000
 34      -0.000000000000
 35      -0.000000000000
 36      -0.000000000000
 37      -0.000000000000
 38       0.000000000000
 39      -0.000000000000
 40       0.000000000000
 41      -0.000000000000
 42      -0.000000000000
 43      -0.000000000000
 44      -0.000000000000
 45      -0.000000000000
 46      -0.000000000000
 47       0.000000000000
 48       0.000000000000
 49       0.000000000000
 50       0.000000000000
 51      -0.000000000000
 52       0.000000000000
 53       0.000000000000
 54      -0.000303572139
 55      -0.000000000000
 56       0.000000000000
 57      -0.000000000000
 58      -0.000000000000
 59      -0.000000000000
 60      -0.000000000000
 61       0.000327010507
 62       0.000000000000
 63       0.000000000000
 64       0.000000000000
 65      -0.000000000000
 66      -0.000000000000
 67       0.000000000000
 68       0.000000000000
 69      -0.000000000000
 70      -0.000000000000
 71       0.000000000000
 72       0.000000000000
 73      -0.000000000000
 74       0.000000000000
 75       0.000000000000
 Sym=     1a
 Ene= -4.48219714787057E+00
 Spin= Alpha
 Occup= 1.000000
  1      -0.000000000000
  2      -0.000000000000
  3      -0.000000000000
  4       0.000000000000
  5       0.000000000000
  6      -0.000000000000
  7      -0.000000000000
  8       0.000000000000
  9       0.000000000000
 10      -0.000000000000
 11      -0.000000000000
 12       0.000000000000
 13       0.381957572564
 14       0.000000000000
 15      -0.000000000000
 16      -0.029619231985
 17       0.000000000000
 18       0.000000000000
 19      -0.812354539344
 20      -0.000000000000
 21      -0.000000000000
 22      -0.281591471628
 23       0.000000000000
 24       0.000000000000
 25      -0.012192745044
 26       0.000000000000
 27       0.000000000000
 28       0.000493223711
 29      -0.000000000000
 30       0.000000000000
 31      -0.000269938416
 32      -0.000000000000
 33      -0.000000000000
 34       0.000000000000
 35      -0.000000000000
 36       0.000000000000
 37       0.000000000000
 38       0.000000000000
 39       0.000000000000
 40      -0.000000000000
 41       0.000000000000
 42      -0.000000000000
 43      -0.000000000000
 44      -0.000000000000
 45      -0.000000000000
 46      -0.000000000000
 47       0.000000000000
 48       0.000000000000
 49      -0.000000000000
 50       0.000000000000
 51       0.000000000000
 52       0.000000000000
 53      -0.000000000000
 54      -0.000000000000
 55      -0.000303572139
 56      -0.000000000000
 57      -0.000000000000
 58      -0.000000000000
 59       0.000000000000
 60       0.000000000000
 61      -0.000000000000
 62       0.000327010507
 63       0.000000000000
 64       0.000000000000
 65       0.000000000000
 66       0.000000000000
 67       0.000000000000
 68      -0.000000000000
 69      -0.000000000000
 70       0.000000000000
 71      -0.000000000000
 72      -0.000000000000
 73      -0.000000000000
 74      -0.000000000000
 75       0.000000000000
 Sym=     1a
 Ene= -4.48194985413809E+00
 Spin= Alpha
 Occup= 1.000000
  1      -0.000000000000
  2       0.000000000000
  3       0.000000000000
  4      -0.000000000000
  5      -0.000000000000
  6       0.000000000000
  7       0.000000000000
  8       0.000000000000
  9      -0.000000000000
 10      -0.000000000000
 11       0.000000000000
 12      -0.000000000000
 13       0.000000000000
 14       0.382892092213
 15      -0.000000000000
 16       0.000000000000
 17      -0.029639848961
 18       0.000000000000
 19      -0.000000000000
 20      -0.816021079784
 21       0.000000000000
 22       0.000000000000
 23      -0.278861107482
 24      -0.000000000000
 25      -0.000000000000
 26      -0.009916860915
 27      -0.000000000000
 28       0.000000000000
 29      -0.000679541410
 30      -0.000000000000
 31       0.000000000000
 32       0.000083181763
 33       0.000000000000
 34      -0.000000000000
 35      -0.000000000000
 36      -0.000000000000
 37       0.000000000000
 38       0.000000000000
 39       0.000000000000
 40       0.000000000000
 41       0.000000000000
 42       0.000000000000
 43       0.000000000000
 44       0.000000000000
 45       0.000000000000
 46      -0.000000000000
 47      -0.000000000000
 48       0.000000000000
 49      -0.000000000000
 50      -0.000000000000
 51       0.000000000000
 52      -0.000000000000
 53      -0.000370645037
 54       0.000000000000
 55       0.000000000000
 56       0.000000000000
 57      -0.000000000000
 58      -0.000000000000
 59       0.000000000000
 60       0.000402069789
 61      -0.000000000000
 62      -0.000000000000
 63      -0.000000000000
 64       0.000000000000
 65       0.000000000000
 66      -0.000000000000
 67       0.000000000000
 68      -0.000000000000
 69       0.000000000000
 70       0.000000000000
 71       0.000000000000
 72       0.000000000000
 73      -0.000000000000
 74       0.000000000000
 75       0.000000000000
 Sym=     1a
 Ene= -1.19609521028841E+00
 Spin= Alpha
 Occup= 1.000000
  1      -0.000000000000
  2       0.000000000000
  3      -0.000000000000
  4       0.000000000000
  5      -0.000000000000
  6       0.000000000000
  7      -0.000000000000
  8       0.000000000000
  9      -0.000000000000
 10       0.000000000000
 11      -0.000000000000
 12      -0.000000000000
 13       0.000000000000
 14       0.000000000000
 15      -0.000000000000
 16      -0.000000000000
 17       0.000000000000
 18      -0.000000000000
 19      -0.000000000000
 20       0.000000000000
 21       0.000000000000
 22       0.000000000000
 23      -0.000000000000
 24      -0.000000000000
 25      -0.000000000000
 26       0.000000000000
 27       0.000000000000
 28       0.000000000000
 29      -0.000000000000
 30      -0.000000000000
 31       0.000000000000
 32       0.000000000000
 33      -0.000000000000
 34       0.000000000000
 35       0.000000000000
 36      -0.857986553334
 37       0.000000000000
 38      -0.000000000000
 39       0.000000000000
 40      -0.000000000000
 41      -0.220563634978
 42      -0.000000000000
 43      -0.000000000000
 44      -0.000000000000
 45       0.000000000000
 46      -0.064156728850
 47       0.000000000000
 48      -0.000000000000
 49       0.000000000000
 50      -0.000000000000
 51      -0.000876203908
 52       0.000000000000
 53       0.000000000000
 54      -0.000000000000
 55      -0.000000000000
 56       0.000000000000
 57       0.000000000000
 58      -0.000000000000
 59      -0.000000000000
 60      -0.000000000000
 61       0.000000000000
 62       0.000000000000
 63       0.000000000000
 64      -0.000000000000
 65       0.000000000000
 66      -0.000000000000
 67       0.000000000000
 68       0.000000000000
 69      -0.000000000000
 70       0.000480360001
 71       0.000000000000
 72      -0.000000000000
 73       0.000000000000
 74       0.000000000000
 75       0.000000000000
 Sym=     1a
 Ene= -1.19609521028566E+00
 Spin= Alpha
 Occup= 1.000000
  1      -0.000000000000
  2       0.000000000000
  3      -0.000000000000
  4       0.000000000000
  5       0.000000000000
  6      -0.000000000000
  7       0.000000000000
  8      -0.000000000000
  9       0.000000000000
 10      -0.000000000000
 11       0.000000000000
 12      -0.000000000000
 13      -0.000000000000
 14      -0.000000000000
 15      -0.000000000000
 16      -0.000000000000
 17      -0.000000000000
 18       0.000000000000
 19       0.000000000000
 20       0.000000000000
 21      -0.000000000000
 22       0.000000000000
 23      -0.000000000000
 24       0.000000000000
 25       0.000000000000
 26      -0.000000000000
 27      -0.000000000000
 28       0.000000000000
 29       0.000000000000
 30       0.000000000000
 31      -0.000000000000
 32      -0.000000000000
 33      -0.000000000000
 34       0.000000000000
 35       0.000000000000
 36       0.000000000000
 37       0.857986553333
 38       0.000000000000
 39      -0.000000000000
 40       0.000000000000
 41      -0.000000000000
 42       0.220563634979
 43      -0.000000000000
 44       0.000000000000
 45      -0.000000000000
 46       0.000000000000
 47       0.064156728851
 48       0.000000000000
 49      -0.000000000000
 50       0.000000000000
 51      -0.000000000000
 52       0.000876203909
 53       0.000000000000
 54       0.000000000000
 55       0.000000000000
 56      -0.000000000000
 57       0.000000000000
 58      -0.000000000000
 59       0.000000000000
 60       0.000000000000
 61       0.000000000000
 62      -0.000000000000
 63       0.000000000000
 64      -0.000000000000
 65      -0.000000000000
 66       0.000000000000
 67      -0.000000000000
 68      -0.000000000000
 69      -0.000000000000
 70       0.000000000000
 71      -0.000480360001
 72      -0.000000000000
 73      -0.000000000000
 74       0.000000000000
 75      -0.000000000000
 Sym=     1a
 Ene= -1.19038282597382E+00
 Spin= Alpha
 Occup= 1.000000
  1      -0.000000000000
  2      -0.000000000000
  3      -0.000000000000
  4       0.000000000000
  5       0.000000000000
  6      -0.000000000000
  7       0.000000000000
  8      -0.000000000000
  9       0.000000000000
 10      -0.000000000000
 11       0.000000000000
 12       0.000000000000
 13       0.000000000000
 14      -0.000000000000
 15       0.000000000000
 16       0.000000000000
 17      -0.000000000000
 18      -0.000000000000
 19      -0.000000000000
 20       0.000000000000
 21       0.000000000000
 22      -0.000000000000
 23      -0.000000000000
 24      -0.000000000000
 25       0.000000000000
 26      -0.000000000000
 27       0.000000000000
 28      -0.000000000000
 29       0.000000000000
 30       0.000000000000
 31       0.000000000000
 32      -0.000000000000
 33      -0.000000000000
 34      -0.000000000000
 35      -0.857685717986
 36       0.000000000000
 37      -0.000000000000
 38       0.000000000000
 39      -0.000000000000
 40      -0.218959019581
 41      -0.000000000000
 42      -0.000000000000
 43      -0.000000000000
 44      -0.000000000000
 45      -0.066992567076
 46       0.000000000000
 47      -0.000000000000
 48       0.000000000000
 49       0.000000000000
 50      -0.003321577685
 51      -0.000000000000
 52      -0.000000000000
 53       0.000000000000
 54       0.000000000000
 55      -0.000000000000
 56      -0.000000000000
 57      -0.000000000000
 58       0.000000000000
 59      -0.000000000000
 60      -0.000000000000
 61       0.000000000000
 62       0.000000000000
 63      -0.000000000000
 64       0.000000000000
 65      -0.000000000000
 66       0.000000000000
 67       0.000000000000
 68      -0.000000000000
 69       0.000677691872
 70       0.000000000000
 71      -0.000000000000
 72       0.000000000000
 73       0.000000000000
 74       0.000000000000
 75       0.000000000000
 Sym=     1a
 Ene= -1.19038282597381E+00
 Spin= Alpha
 Occup= 1.000000
  1      -0.000000000000
  2       0.000000000000
  3       0.000000000000
  4       0.000000000000
  5      -0.000000000000
  6       0.000000000000
  7      -0.000000000000
  8      -0.000000000000
  9       0.000000000000
 10      -0.000000000000
 11       0.000000000000
 12       0.000000000000
 13       0.000000000000
 14       0.000000000000
 15       0.000000000000
 16       0.000000000000
 17       0.000000000000
 18       0.000000000000
 19      -0.000000000000
 20      -0.000000000000
 21       0.000000000000
 22       0.000000000000
 23       0.000000000000
 24      -0.000000000000
 25      -0.000000000000
 26       0.000000000000
 27      -0.000000000000
 28       0.000000000000
 29       0.000000000000
 30      -0.000000000000
 31      -0.000000000000
 32      -0.000000000000
 33       0.000000000000
 34       0.857685717986
 35       0.000000000000
 36      -0.000000000000
 37      -0.000000000000
 38       0.000000000000
 39       0.218959019581
 40       0.000000000000
 41      -0.000000000000
 42       0.000000000000
 43       0.000000000000
 44       0.066992567076
 45       0.000000000000
 46       0.000000000000
 47      -0.000000000000
 48      -0.000000000000
 49       0.003321577685
 50      -0.000000000000
 51      -0.000000000000
 52       0.000000000000
 53      -0.000000000000
 54       0.000000000000
 55       0.000000000000
 56       0.000000000000
 57      -0.000000000000
 58       0.000000000000
 59      -0.000000000000
 60      -0.000000000000
 61      -0.000000000000
 62      -0.000000000000
 63      -0.000000000000
 64      -0.000000000000
 65      -0.000000000000
 66       0.000000000000
 67      -0.000000000000
 68      -0.000677691872
 69       0.000000000000
 70       0.000000000000
 71      -0.000000000000
 72       0.000000000000
 73      -0.000000000000
 74       0.000000000000
 75       0.000000000000
 Sym=     1a
 Ene= -1.18863031972614E+00
 Spin= Alpha
 Occup= 1.000000
  1      -0.000196961879
  2      -0.000134248854
  3      -0.000044029650
  4       0.000838501344
  5       0.000511306053
  6       0.000776101084
  7      -0.005905312316
  8       0.004285145087
  9       0.008149602204
 10      -0.011750386002
 11      -0.001524431411
 12       0.000000000000
 13      -0.000000000000
 14      -0.000000000000
 15       0.000000000000
 16       0.000000000000
 17      -0.000000000000
 18       0.000000000000
 19       0.000000000000
 20       0.000000000000
 21      -0.000000000000
 22      -0.000000000000
 23      -0.000000000000
 24       0.000000000000
 25       0.000000000000
 26      -0.000000000000
 27      -0.000000000000
 28      -0.000000000000
 29       0.000000000000
 30       0.000000000000
 31       0.000000000000
 32       0.000000000000
 33      -0.857510679496
 34      -0.000000000000
 35      -0.000000000000
 36       0.000000000000
 37       0.000000000000
 38      -0.218387853808
 39       0.000000000000
 40      -0.000000000000
 41       0.000000000000
 42      -0.000000000000
 43      -0.068049035752
 44      -0.000000000000
 45       0.000000000000
 46       0.000000000000
 47       0.000000000000
 48      -0.004330807948
 49       0.000000000000
 50       0.000000000000
 51       0.000000000000
 52       0.000000000000
 53       0.000000000000
 54       0.000000000000
 55       0.000000000000
 56      -0.000000000000
 57      -0.000000000000
 58       0.000000000000
 59      -0.000000000000
 60       0.000000000000
 61      -0.000000000000
 62       0.000000000000
 63       0.000000000000
 64       0.000000000000
 65       0.000000000000
 66      -0.000000000000
 67       0.000741342321
 68       0.000000000000
 69      -0.000000000000
 70      -0.000000000000
 71       0.000000000000
 72       0.000000000000