
                                 *****************
                                 * O   R   C   A *
                                 *****************

           --- An Ab Initio, DFT and Semiempirical electronic structure package ---

                  #######################################################
                  #                        -***-                        #
                  #  Department of molecular theory and spectroscopy    #
                  #              Directorship: Frank Neese              #
                  # Max Planck Institute for Chemical Energy Conversion #
                  #                  D-45470 Muelheim/Ruhr              #
                  #                       Germany                       #
                  #                                                     #
                  #                  All rights reserved                #
                  #                        -***-                        #
                  #######################################################


                         Program Version 4.0.1.2 - RELEASE -


 With contributions from (in alphabetic order):
   Daniel Aravena         : Magnetic Properties
   Michael Atanasov       : Ab Initio Ligand Field Theory
   Ute Becker             : Parallelization
   Martin Brehm           : Molecular dynamics
   Dmytro Bykov           : SCF Hessian
   Vijay G. Chilkuri      : MRCI spin determinant printing
   Dipayan Datta          : RHF DLPNO-CCSD density
   Achintya Kumar Dutta   : EOM-CC, STEOM-CC
   Dmitry Ganyushin       : Spin-Orbit,Spin-Spin,Magnetic field MRCI
   Yang Guo               : DLPNO-NEVPT2, CIM, IAO-localization
   Andreas Hansen         : Spin unrestricted coupled pair/coupled cluster methods
   Lee Huntington         : MR-EOM, pCC
   Robert Izsak           : Overlap fitted RIJCOSX, COSX-SCS-MP3, EOM
   Christian Kollmar      : KDIIS, OOCD, Brueckner-CCSD(T), CCSD density
   Simone Kossmann        : Meta GGA functionals, TD-DFT gradient, OOMP2, MP2 Hessian
   Martin Krupicka        : AUTO-CI
   Dagmar Lenk            : GEPOL surface
   Dimitrios Liakos       : Extrapolation schemes; parallel MDCI
   Dimitrios Manganas     : ROCIS; embedding schemes
   Dimitrios Pantazis     : SARC Basis sets
   Taras Petrenko         : DFT Hessian,TD-DFT gradient, ASA, ECA, R-Raman, ABS, FL, XAS/XES, NRVS
   Peter Pinski           : DLPNO-MP2
   Christoph Reimann      : Effective Core Potentials
   Marius Retegan         : Local ZFS, SOC
   Christoph Riplinger    : Optimizer, TS searches, QM/MM, DLPNO-CCSD(T), (RO)-DLPNO pert. Triples
   Tobias Risthaus        : Range-separated hybrids, TD-DFT gradient, RPA, STAB
   Michael Roemelt        : Restricted open shell CIS
   Masaaki Saitow         : Open-shell DLPNO
   Barbara Sandhoefer     : DKH picture change effects
   Kantharuban Sivalingam : CASSCF convergence, NEVPT2, FIC-MRCI
   Georgi Stoychev        : AutoAux
   Boris Wezisla          : Elementary symmetry handling
   Frank Wennmohs         : Technical directorship


 We gratefully acknowledge several colleagues who have allowed us to
 interface, adapt or use parts of their codes:
   Stefan Grimme, W. Hujo, H. Kruse,             : VdW corrections, initial TS optimization,
                  C. Bannwarth                     DFT functionals, gCP, sTDA/sTD-DF
   Ed Valeev                                     : LibInt (2-el integral package), F12 methods
   Garnet Chan, S. Sharma, J. Yang, R. Olivares  : DMRG
   Ulf Ekstrom                                   : XCFun DFT Library
   Mihaly Kallay                                 : mrcc  (arbitrary order and MRCC methods)
   Andreas Klamt, Michael Diedenhofen            : otool_cosmo (COSMO solvation model)
   Jiri Pittner, Ondrej Demel                    : Mk-CCSD
   Frank Weinhold                                : gennbo (NPA and NBO analysis)
   Christopher J. Cramer and Donald G. Truhlar   : smd solvation model


 Your calculation uses the libint2 library for the computation of 2-el integrals
 For citations please refer to: http://libint.valeyev.net

 This ORCA versions uses:
   CBLAS   interface :  Fast vector & matrix operations
   LAPACKE interface :  Fast linear algebra routines
   SCALAPACK package :  Parallel linear algebra routines




*****************************************
The coordinations will be read from file: ../../../../chem_database/C.xyz
*****************************************


Your calculation utilizes the basis: def2-QZVP
   F. Weigend and R. Ahlrichs, Phys. Chem. Chem. Phys. 7, 3297 (2005).

Your calculation utilizes the auxiliary basis: def2-QZVPP/C
   A. Hellweg, C. Hattig, S. Hofener and W. Klopper, Theor. Chem. Acc. 117, 587 (2007).

================================================================================
                                        WARNINGS
                       Please study these warnings very carefully!
================================================================================

Warning: TCutStore was < 0. Adjusted to Thresh (uncritical)

WARNING: your system is open-shell and RHF/RKS was chosen
  ===> : WILL SWITCH to UHF/UKS


WARNING: Post HF methods need fully converged wavefunctions
  ===> : Setting SCFConvForced true
         You can overwrite this default with %scf ConvForced false 


INFO   : the flag for use of LIBINT has been found!



*****************************************
The coordinations will be read from file: ../../../../chem_database/C.xyz
*****************************************


Your calculation utilizes the basis: def2-QZVP
   F. Weigend and R. Ahlrichs, Phys. Chem. Chem. Phys. 7, 3297 (2005).

================================================================================
                                        WARNINGS
                       Please study these warnings very carefully!
================================================================================


INFO   : the flag for use of LIBINT has been found!



*****************************************
The coordinations will be read from file: ../../../../chem_database/C.xyz
*****************************************


Your calculation utilizes the basis: def2-QZVP
   F. Weigend and R. Ahlrichs, Phys. Chem. Chem. Phys. 7, 3297 (2005).

================================================================================
                                        WARNINGS
                       Please study these warnings very carefully!
================================================================================


INFO   : the flag for use of LIBINT has been found!

================================================================================
                                       INPUT FILE
================================================================================
NAME = mol.inp
|  1> # ================================================================
|  2> # Orca input file
|  3> # ================================================================
|  4> ! RI-MP2 def2-QZVP def2-QZVPP/C VeryTightSCF
|  5> ! PAL4
|  6> 
|  7> %mp2
|  8>   density unrelaxed
|  9>   natorbs true
| 10> end
| 11> 
| 12> * xyzfile 0 3 ../../../../chem_database/C.xyz
| 13> 
| 14> 
| 15> $new_job
| 16> ! def2-QZVP VeryTightSCF
| 17> ! MOREAD
| 18> 
| 19> %moinp "mol.mp2nat"
| 20> 
| 21> %casscf
| 22>   nel  4
| 23>   norb 4
| 24>   PrintWF det
| 25> end
| 26> 
| 27> * xyzfile 0 3 ../../../../chem_database/C.xyz
| 28> 
| 29> 
| 30> $new_job
| 31> ! def2-QZVP VeryTightSCF
| 32> 
| 33> %casscf
| 34>   nel  4
| 35>   norb 4
| 36>   PrintWF csf
| 37> end
| 38> 
| 39> * xyzfile 0 3 ../../../../chem_database/C.xyz
| 40> 
| 41>                          ****END OF INPUT****
================================================================================


                 $$$$$$$$$$$$$$$$$$$$$$$$$$$$$$$$$$$$$$$$$$$$$$ 
                 $ THERE ARE  3 JOBS TO BE PROCESSED THIS RUN $
                 $$$$$$$$$$$$$$$$$$$$$$$$$$$$$$$$$$$$$$$$$$$$$$ 




                 $$$$$$$$$$$$$$$$  JOB NUMBER  1 $$$$$$$$$$$$$$


                       ****************************
                       * Single Point Calculation *
                       ****************************

---------------------------------
CARTESIAN COORDINATES (ANGSTROEM)
---------------------------------
  C      0.000000    0.000000    0.000000

----------------------------
CARTESIAN COORDINATES (A.U.)
----------------------------
  NO LB      ZA    FRAG     MASS         X           Y           Z
   0 C     6.0000    0    12.011    0.000000    0.000000    0.000000

--------------------------------
INTERNAL COORDINATES (ANGSTROEM)
--------------------------------
 C      0   0   0     0.000000000000     0.00000000     0.00000000

---------------------------
INTERNAL COORDINATES (A.U.)
---------------------------
 C      0   0   0     0.000000000000     0.00000000     0.00000000

---------------------
BASIS SET INFORMATION
---------------------
There are 1 groups of distinct atoms

 Group   1 Type C   : 15s8p3d2f1g contracted to 7s4p3d2f1g pattern {8211111/5111/111/11/1}

Atom   0C    basis set group =>   1

INFORMATION: There is an auxiliary basis set but the global RI flag is NOT set

-------------------------------
AUXILIARY BASIS SET INFORMATION
-------------------------------
There are 1 groups of distinct atoms

 Group   1 Type C   : 9s8p7d5f3g1h contracted to 9s8p7d5f3g1h pattern {111111111/11111111/1111111/11111/111/1}

Atom   0C    basis set group =>   1


           ************************************************************
           *        Program running with 4 parallel MPI-processes     *
           *              working on a common directory               *
           ************************************************************
------------------------------------------------------------------------------
                           ORCA GTO INTEGRAL CALCULATION
------------------------------------------------------------------------------

                         BASIS SET STATISTICS AND STARTUP INFO

 # of primitive gaussian shells          ...   29
 # of primitive gaussian functions       ...   77
 # of contracted shells                  ...   17
 # of contracted basis functions         ...   57
 Highest angular momentum                ...    4
 Maximum contraction depth               ...    8
 Integral package used                   ... LIBINT
 Integral threshhold            Thresh   ...  1.000e-12
 Primitive cut-off              TCut     ...  1.000e-14


------------------------------ INTEGRAL EVALUATION ----------------------------


 * One electron integrals 
 Pre-screening matrix                    ... done
 Shell pair data                         ... done (   0.000 sec)



           ************************************************************
           *        Program running with 4 parallel MPI-processes     *
           *              working on a common directory               *
           ************************************************************
-------------------------------------------------------------------------------
                                 ORCA SCF
-------------------------------------------------------------------------------

------------
SCF SETTINGS
------------
Hamiltonian:
 Ab initio Hamiltonian  Method          .... Hartree-Fock(GTOs)


General Settings:
 Integral files         IntName         .... mol
 Hartree-Fock type      HFTyp           .... UHF
 Total Charge           Charge          ....    0
 Multiplicity           Mult            ....    3
 Number of Electrons    NEL             ....    6
 Basis Dimension        Dim             ....   57
 Nuclear Repulsion      ENuc            ....      0.0000000000 Eh

Convergence Acceleration:
 DIIS                   CNVDIIS         .... on
   Start iteration      DIISMaxIt       ....    12
   Startup error        DIISStart       ....  0.200000
   # of expansion vecs  DIISMaxEq       ....     5
   Bias factor          DIISBfac        ....   1.050
   Max. coefficient     DIISMaxC        ....  10.000
 Newton-Raphson         CNVNR           .... off
 SOSCF                  CNVSOSCF        .... off
 Level Shifting         CNVShift        .... on
   Level shift para.    LevelShift      ....    0.2500
   Turn off err/grad.   ShiftErr        ....    0.0010
 Zerner damping         CNVZerner       .... off
 Static damping         CNVDamp         .... on
   Fraction old density DampFac         ....    0.7000
   Max. Damping (<1)    DampMax         ....    0.9800
   Min. Damping (>=0)   DampMin         ....    0.0000
   Turn off err/grad.   DampErr         ....    0.1000
 Fernandez-Rico         CNVRico         .... off

SCF Procedure:
 Maximum # iterations   MaxIter         ....   125
 SCF integral mode      SCFMode         .... Direct
   Integral package                     .... LIBINT
 Reset frequeny         DirectResetFreq ....    20
 Integral Threshold     Thresh          ....  1.000e-12 Eh
 Primitive CutOff       TCut            ....  1.000e-14 Eh

Convergence Tolerance:
 Convergence Check Mode ConvCheckMode   .... Total+1el-Energy
 Convergence forced     ConvForced      .... 1
 Energy Change          TolE            ....  1.000e-09 Eh
 1-El. energy change                    ....  1.000e-06 Eh
 DIIS Error             TolErr          ....  1.000e-08


Diagonalization of the overlap matrix:
Smallest eigenvalue                        ... 6.128e-03
Time for diagonalization                   ...    0.006 sec
Threshold for overlap eigenvalues          ... 1.000e-08
Number of eigenvalues below threshold      ... 0
Time for construction of square roots      ...    0.001 sec
Total time needed                          ...    0.007 sec

-------------------
DFT GRID GENERATION
-------------------

General Integration Accuracy     IntAcc      ...  4.340
Radial Grid Type                 RadialGrid  ... Gauss-Chebyshev
Angular Grid (max. acc.)         AngularGrid ... Lebedev-110
Angular grid pruning method      GridPruning ... 3 (G Style)
Weight generation scheme         WeightScheme... Becke
Basis function cutoff            BFCut       ...    1.0000e-12
Integration weight cutoff        WCut        ...    1.0000e-14
Grids for H and He will be reduced by one unit

# of grid points (after initial pruning)     ...   1656 (   0.0 sec)
# of grid points (after weights+screening)   ...   1656 (   0.0 sec)
Grid point division into batches done        ...    0.0 sec
Reduced shell lists constructed in    0.0 sec

Total number of grid points                  ...     1656
Total number of batches                      ...       26
Average number of points per batch           ...       63
Average number of grid points per atom       ...     1656
Average number of shells per batch           ...    10.50 (61.76%)
Average number of basis functions per batch  ...    41.50 (72.81%)
Average number of large shells per batch     ...     9.12 (86.90%)
Average number of large basis fcns per batch ...    35.12 (84.64%)
Maximum spatial batch extension              ...  16.97, 31.36, 31.36 au
Average spatial batch extension              ...   4.10,  5.50,  6.76 au

Time for grid setup =    0.022 sec

------------------------------
INITIAL GUESS: MODEL POTENTIAL
------------------------------
Loading Hartree-Fock densities                     ... done
Calculating cut-offs                               ... done
Setting up the integral package                    ... done
Initializing the effective Hamiltonian             ... done
Starting the Coulomb interaction                   ... done (   0.0 sec)
Reading the grid                                   ... done
Mapping shells                                     ... done
Starting the XC term evaluation                    ... done (   0.0 sec)
Transforming the Hamiltonian                       ... done (   0.0 sec)
Diagonalizing the Hamiltonian                      ... done (   0.0 sec)
Back transforming the eigenvectors                 ... done (   0.0 sec)
Now organizing SCF variables                       ... done
                      ------------------
                      INITIAL GUESS DONE (   0.2 sec)
                      ------------------
--------------
SCF ITERATIONS
--------------
ITER       Energy         Delta-E        Max-DP      RMS-DP      [F,P]     Damp
               ***  Starting incremental Fock matrix formation  ***
  0    -37.6761241216   0.000000000000 0.00728299  0.00028119  0.2984472 0.7000
  1    -37.6802671432  -0.004143021625 0.00721952  0.00026861  0.2133478 0.7000
                               ***Turning on DIIS***
  2    -37.6835707494  -0.003303606126 0.00663675  0.00022353  0.1514966 0.7000
  3    -37.6508564219   0.032714327458 0.00698318  0.00021000  0.1075538 0.7000
  4    -37.6529136459  -0.002057224015 0.02089595  0.00061848  0.0757489 0.0000
  5    -37.6927329102  -0.039819264312 0.00487518  0.00013000  0.0033934 0.0000
  6    -37.6912035615   0.001529348775 0.00530338  0.00012556  0.0019379 0.0000
  7    -37.6925462984  -0.001342736974 0.00361330  0.00007094  0.0007230 0.0000
  8    -37.6935425365  -0.000996238091 0.00037464  0.00000635  0.0000716 0.0000
  9    -37.6936332048  -0.000090668240 0.00004227  0.00000089  0.0000169 0.0000
 10    -37.6936282141   0.000004990636 0.00000493  0.00000011  0.0000019 0.0000
 11    -37.6936270123   0.000001201852 0.00000123  0.00000002  0.0000003 0.0000
 12    -37.6936271864  -0.000000174073 0.00000009  0.00000000  0.0000000 0.0000
                            ***DIIS convergence achieved***

               *****************************************************
               *                     SUCCESS                       *
               *           SCF CONVERGED AFTER  13 CYCLES          *
               *****************************************************


----------------
TOTAL SCF ENERGY
----------------

Total Energy       :          -37.69362721 Eh           -1025.69574 eV

Components:
Nuclear Repulsion  :            0.00000000 Eh               0.00000 eV
Electronic Energy  :          -37.69362721 Eh           -1025.69574 eV
One Electron Energy:          -50.45130872 Eh           -1372.84990 eV
Two Electron Energy:           12.75768151 Eh             347.15416 eV

Virial components:
Potential Energy   :          -75.38788198 Eh           -2051.40856 eV
Kinetic Energy     :           37.69425476 Eh            1025.71282 eV
Virial Ratio       :            1.99998335


---------------
SCF CONVERGENCE
---------------

  Last Energy change         ...   -2.7306e-08  Tolerance :   1.0000e-09
  Last MAX-Density change    ...    4.5462e-08  Tolerance :   1.0000e-08
  Last RMS-Density change    ...    9.7055e-10  Tolerance :   1.0000e-09
  Last DIIS Error            ...    8.1062e-09  Tolerance :   1.0000e-08

             **** THE GBW FILE WAS UPDATED (mol.gbw) ****
             **** DENSITY FILE WAS UPDATED (mol.scfp.tmp) ****
             **** ENERGY FILE WAS UPDATED (mol.en.tmp) ****
----------------------
UHF SPIN CONTAMINATION
----------------------

Expectation value of <S**2>     :     2.010168
Ideal value S*(S+1) for S=1.0   :     2.000000
Deviation                       :     0.010168

----------------
ORBITAL ENERGIES
----------------
                 SPIN UP ORBITALS
  NO   OCC          E(Eh)            E(eV) 
   0   1.0000     -11.345296      -308.7212 
   1   1.0000      -0.829049       -22.5596 
   2   1.0000      -0.438929       -11.9439 
   3   1.0000      -0.438929       -11.9439 
   4   0.0000       0.024973         0.6795 
   5   0.0000       0.212300         5.7770 
   6   0.0000       0.212300         5.7770 
   7   0.0000       0.255191         6.9441 
   8   0.0000       0.290012         7.8916 
   9   0.0000       0.606330        16.4991 
  10   0.0000       0.606330        16.4991 
  11   0.0000       0.616990        16.7891 
  12   0.0000       0.616990        16.7891 
  13   0.0000       0.621646        16.9159 
  14   0.0000       0.911650        24.8073 
  15   0.0000       0.911650        24.8073 
  16   0.0000       0.953880        25.9564 
  17   0.0000       1.686905        45.9030 
  18   0.0000       1.884951        51.2921 
  19   0.0000       1.886758        51.3413 
  20   0.0000       1.886758        51.3413 
  21   0.0000       1.892131        51.4875 
  22   0.0000       1.892131        51.4875 
  23   0.0000       1.900926        51.7268 
  24   0.0000       1.900926        51.7268 
  25   0.0000       2.054908        55.9169 
  26   0.0000       2.054908        55.9169 
  27   0.0000       2.066793        56.2403 
  28   0.0000       2.066793        56.2403 
  29   0.0000       2.071621        56.3717 
  30   0.0000       3.095661        84.2372 
  31   0.0000       3.095661        84.2372 
  32   0.0000       3.115802        84.7853 
  33   0.0000       5.075641       138.1152 
  34   0.0000       5.078104       138.1822 
  35   0.0000       5.078104       138.1822 
  36   0.0000       5.085502       138.3836 
  37   0.0000       5.085502       138.3836 
  38   0.0000       5.097868       138.7200 
  39   0.0000       5.097868       138.7200 
  40   0.0000       5.115240       139.1928 
  41   0.0000       5.115240       139.1928 
  42   0.0000       6.208279       168.9359 
  43   0.0000       6.211618       169.0267 
  44   0.0000       6.211618       169.0267 
  45   0.0000       6.221634       169.2993 
  46   0.0000       6.221634       169.2993 
  47   0.0000       6.238310       169.7531 
  48   0.0000       6.238310       169.7531 
  49   0.0000       6.257419       170.2730 
  50   0.0000       6.260170       170.3479 
  51   0.0000       6.260170       170.3479 
  52   0.0000       6.268759       170.5816 
  53   0.0000       6.268759       170.5816 
  54   0.0000       7.202077       195.9785 
  55   0.0000      27.511057       748.6139 
  56   0.0000     147.858977      4023.4473 

                 SPIN DOWN ORBITALS
  NO   OCC          E(Eh)            E(eV) 
   0   1.0000     -11.300296      -307.4967 
   1   1.0000      -0.583447       -15.8764 
   2   0.0000       0.052294         1.4230 
   3   0.0000       0.094210         2.5636 
   4   0.0000       0.094210         2.5636 
   5   0.0000       0.274295         7.4640 
   6   0.0000       0.311945         8.4885 
   7   0.0000       0.311945         8.4885 
   8   0.0000       0.327088         8.9005 
   9   0.0000       0.648871        17.6567 
  10   0.0000       0.656683        17.8693 
  11   0.0000       0.656683        17.8693 
  12   0.0000       0.682737        18.5782 
  13   0.0000       0.682737        18.5782 
  14   0.0000       0.976519        26.5724 
  15   0.0000       1.022746        27.8303 
  16   0.0000       1.022746        27.8303 
  17   0.0000       1.752256        47.6813 
  18   0.0000       1.911770        52.0219 
  19   0.0000       1.917412        52.1754 
  20   0.0000       1.917412        52.1754 
  21   0.0000       1.934434        52.6386 
  22   0.0000       1.934434        52.6386 
  23   0.0000       1.963348        53.4254 
  24   0.0000       1.963348        53.4254 
  25   0.0000       2.125830        57.8468 
  26   0.0000       2.140385        58.2428 
  27   0.0000       2.140385        58.2428 
  28   0.0000       2.187943        59.5370 
  29   0.0000       2.187943        59.5370 
  30   0.0000       3.138777        85.4105 
  31   0.0000       3.193040        86.8870 
  32   0.0000       3.193040        86.8870 
  33   0.0000       5.102616       138.8492 
  34   0.0000       5.106969       138.9677 
  35   0.0000       5.106969       138.9677 
  36   0.0000       5.120091       139.3248 
  37   0.0000       5.120091       139.3248 
  38   0.0000       5.142180       139.9258 
  39   0.0000       5.142180       139.9258 
  40   0.0000       5.173593       140.7806 
  41   0.0000       5.173593       140.7806 
  42   0.0000       6.247177       169.9943 
  43   0.0000       6.255364       170.2171 
  44   0.0000       6.255364       170.2171 
  45   0.0000       6.280072       170.8895 
  46   0.0000       6.280072       170.8895 
  47   0.0000       6.300246       171.4384 
  48   0.0000       6.316696       171.8860 
  49   0.0000       6.316696       171.8860 
  50   0.0000       6.321797       172.0249 
  51   0.0000       6.321797       172.0249 
  52   0.0000       6.366344       173.2370 
  53   0.0000       6.366344       173.2370 
  54   0.0000       7.252433       197.3487 
  55   0.0000      27.531577       749.1723 
  56   0.0000     147.863998      4023.5840 

                    ********************************
                    * MULLIKEN POPULATION ANALYSIS *
                    ********************************

--------------------------------------------
MULLIKEN ATOMIC CHARGES AND SPIN POPULATIONS
--------------------------------------------
   0 C :   -0.000000    2.000000
Sum of atomic charges         :   -0.0000000
Sum of atomic spin populations:    2.0000000

-----------------------------------------------------
MULLIKEN REDUCED ORBITAL CHARGES AND SPIN POPULATIONS
-----------------------------------------------------
CHARGE
  0 C s       :     3.997003  s :     3.997003
      pz      :     0.996701  p :     1.999994
      px      :     0.817670
      py      :     0.185623
      dz2     :     0.000734  d :     0.002997
      dxz     :     0.000005
      dyz     :     0.000024
      dx2y2   :     0.000898
      dxy     :     0.001335
      f0      :     0.000001  f :     0.000006
      f+1     :     0.000000
      f-1     :     0.000000
      f+2     :     0.000001
      f-2     :     0.000001
      f+3     :     0.000000
      f-3     :     0.000003
      g0      :     0.000000  g :     0.000000
      g+1     :     0.000000
      g-1     :     0.000000
      g+2     :     0.000000
      g-2     :     0.000000
      g+3     :     0.000000
      g-3     :     0.000000
      g+4     :     0.000000
      g-4     :     0.000000

SPIN
  0 C s       :    -0.000252  s :    -0.000252
      pz      :     0.996701  p :     1.999994
      px      :     0.817670
      py      :     0.185623
      dz2     :     0.000062  d :     0.000252
      dxz     :     0.000000
      dyz     :     0.000002
      dx2y2   :     0.000075
      dxy     :     0.000112
      f0      :     0.000001  f :     0.000006
      f+1     :     0.000000
      f-1     :     0.000000
      f+2     :     0.000001
      f-2     :     0.000001
      f+3     :     0.000000
      f-3     :     0.000003
      g0      :    -0.000000  g :    -0.000000
      g+1     :    -0.000000
      g-1     :    -0.000000
      g+2     :    -0.000000
      g-2     :    -0.000000
      g+3     :    -0.000000
      g-3     :    -0.000000
      g+4     :    -0.000000
      g-4     :    -0.000000


                     *******************************
                     * LOEWDIN POPULATION ANALYSIS *
                     *******************************

-------------------------------------------
LOEWDIN ATOMIC CHARGES AND SPIN POPULATIONS
-------------------------------------------
   0 C :   -0.000000    2.000000

----------------------------------------------------
LOEWDIN REDUCED ORBITAL CHARGES AND SPIN POPULATIONS
----------------------------------------------------
CHARGE
  0 C s       :     3.997003  s :     3.997003
      pz      :     0.996701  p :     1.999994
      px      :     0.817670
      py      :     0.185623
      dz2     :     0.000734  d :     0.002997
      dxz     :     0.000005
      dyz     :     0.000024
      dx2y2   :     0.000898
      dxy     :     0.001335
      f0      :     0.000001  f :     0.000006
      f+1     :     0.000000
      f-1     :     0.000000
      f+2     :     0.000001
      f-2     :     0.000001
      f+3     :     0.000000
      f-3     :     0.000003
      g0      :     0.000000  g :     0.000000
      g+1     :     0.000000
      g-1     :     0.000000
      g+2     :     0.000000
      g-2     :     0.000000
      g+3     :     0.000000
      g-3     :     0.000000
      g+4     :     0.000000
      g-4     :     0.000000

SPIN
  0 C s       :    -0.000252  s :    -0.000252
      pz      :     0.996701  p :     1.999994
      px      :     0.817670
      py      :     0.185623
      dz2     :     0.000062  d :     0.000252
      dxz     :     0.000000
      dyz     :     0.000002
      dx2y2   :     0.000075
      dxy     :     0.000112
      f0      :     0.000001  f :     0.000006
      f+1     :     0.000000
      f-1     :     0.000000
      f+2     :     0.000001
      f-2     :     0.000001
      f+3     :     0.000000
      f-3     :     0.000003
      g0      :    -0.000000  g :    -0.000000
      g+1     :    -0.000000
      g-1     :    -0.000000
      g+2     :    -0.000000
      g-2     :    -0.000000
      g+3     :    -0.000000
      g-3     :    -0.000000
      g+4     :    -0.000000
      g-4     :    -0.000000


                      *****************************
                      * MAYER POPULATION ANALYSIS *
                      *****************************

  NA   - Mulliken gross atomic population
  ZA   - Total nuclear charge
  QA   - Mulliken gross atomic charge
  VA   - Mayer's total valence
  BVA  - Mayer's bonded valence
  FA   - Mayer's free valence

  ATOM       NA         ZA         QA         VA         BVA        FA
  0 C      6.0000     6.0000    -0.0000     2.0203     0.0000     2.0203

  Mayer bond orders larger than 0.1


-------
TIMINGS
-------

Total SCF time: 0 days 0 hours 0 min 2 sec 

Total time                  ....       2.612 sec
Sum of individual times     ....       2.596 sec  ( 99.4%)

Fock matrix formation       ....       2.384 sec  ( 91.3%)
Diagonalization             ....       0.043 sec  (  1.6%)
Density matrix formation    ....       0.001 sec  (  0.0%)
Population analysis         ....       0.002 sec  (  0.1%)
Initial guess               ....       0.140 sec  (  5.4%)
Orbital Transformation      ....       0.000 sec  (  0.0%)
Orbital Orthonormalization  ....       0.000 sec  (  0.0%)
DIIS solution               ....       0.005 sec  (  0.2%)


           ************************************************************
           *        Program running with 4 parallel MPI-processes     *
           *              working on a common directory               *
           ************************************************************

------------------------------------------------------------------------------
                                ORCA  MP2 
------------------------------------------------------------------------------

Freezing NCore=2 chemical core electrons

---------------------
RI-MP2 ENERGY+DENSITY
---------------------
Dimension of the basis                    ...   57
Memory devoted to MP2                     ...  256 MB   
Data format for buffers                   ... DOUBLE
Compression type for matrix containers    ... UNCOMPRESSED
Overall scaling of the MP2 energy         ...   1.000e+00
Calculating two index integrals           ... done (    0.008 sec)
Cholesky decomposition of V**-1           ... done (    0.001 sec)

-----------------
RI-TRANSFORMATION (AUX index driven)
-----------------

Dimension of the orbital-basis         ... 57
Dimension of the aux-basis             ... 141
Transformation of internal MOs         ...    0-   3
Transformation of internal/external MOs...    0-   3 to    4-  56
Number Format for Storage              ... Double (8 Byte)
Integral mode                          ... Direct

First Phase: integral generation and transformation of MO indices
  Aux angular momentum 0               ... done (    0.000 sec)
  Aux angular momentum 1               ... done (    0.000 sec)
  Aux angular momentum 2               ... done (    0.000 sec)
  Aux angular momentum 3               ... done (    0.001 sec)
  Aux angular momentum 4               ... done (    0.001 sec)
  Aux angular momentum 5               ... done (    0.001 sec)
Closing buffer VIJ ( 0.00 GB; CompressionRatio= 0.87)
Closing buffer VIA ( 0.00 GB; CompressionRatio= 0.99)
  Phase 1 completed in     0.065 sec
Second Phase: sorting and transformation of aux index

IJ-Transformation
Memory available                       ... 256 MB 
Max. # MO pairs treated in a batch     ... 1    
# of internal orbitals                 ... 4
# batches for internal orbitals        ... 1
Closing buffer IJV ( 0.00 GB; CompressionRatio= 0.99)
(ij|v) transformation done in     0.000 sec

IA-Transformation
Memory available                       ... 256 MB 
Max. # MO pairs treated in a batch     ... 1    
# of internal orbitals                 ... 4
# batches for internal orbitals        ... 1
Closing buffer IAV ( 0.00 GB; CompressionRatio= 1.00)
(ia|v) transformation done in     0.000 sec

  Phase 2 completed in     0.001 sec
RI-Integral transformation completed in     0.066 sec

-----------------
RI-TRANSFORMATION (AUX index driven)
-----------------

Dimension of the orbital-basis         ... 57
Dimension of the aux-basis             ... 141
Transformation of internal MOs         ...    0-   1
Transformation of internal/external MOs...    0-   1 to    2-  56
Number Format for Storage              ... Double (8 Byte)
Integral mode                          ... Direct

First Phase: integral generation and transformation of MO indices
  Aux angular momentum 0               ... done (    0.000 sec)
  Aux angular momentum 1               ... done (    0.000 sec)
  Aux angular momentum 2               ... done (    0.000 sec)
  Aux angular momentum 3               ... done (    0.001 sec)
  Aux angular momentum 4               ... done (    0.001 sec)
  Aux angular momentum 5               ... done (    0.001 sec)
Closing buffer VIJ ( 0.00 GB; CompressionRatio= 0.67)
Closing buffer VIA ( 0.00 GB; CompressionRatio= 0.99)
  Phase 1 completed in     0.068 sec
Second Phase: sorting and transformation of aux index

IJ-Transformation
Memory available                       ... 256 MB 
Max. # MO pairs treated in a batch     ... 1    
# of internal orbitals                 ... 2
# batches for internal orbitals        ... 1
Closing buffer IJV ( 0.00 GB; CompressionRatio= 0.99)
(ij|v) transformation done in     0.000 sec

IA-Transformation
Memory available                       ... 256 MB 
Max. # MO pairs treated in a batch     ... 1    
# of internal orbitals                 ... 2
# batches for internal orbitals        ... 1
Closing buffer IAV ( 0.00 GB; CompressionRatio= 1.00)
(ia|v) transformation done in     0.000 sec

  Phase 2 completed in     0.001 sec
RI-Integral transformation completed in     0.068 sec
Opening buffers                              ... done

Starting loop over batches of integrals:

Operator 0  - window                       ... (  1-  3)x(  4- 56)
Operator 0  - Memory available             ...   256 MB
Operator 0  - Memory needed per MO         ...   0.1 MB
Operator 0  - Number of orbitals per batch ... 1
Operator 0  - Number of batches            ... 1

OPERATOR  0   PASS   0:  MOs     1 ...    1 +    2 ...    2 +    3 ...    3
  Reading integrals       ... ok

Operator 1  - window                       ... (  1-  1)x(  2- 56)
Operator 1  - Memory available             ...   256 MB
Operator 1  - Memory needed per MO         ...   0.1 MB
Operator 1  - Number of orbitals per batch ... 1
Operator 1  - Number of batches            ... 1

OPERATOR  1   PASS   0:  MOs     1 ...    1
  Reading integrals       ... ok
Time spent in pair loops =     0.001 sec
Deleting buffer (Ka|jb)[aa] ...done
Deleting buffer (Ka|jb)[ab] ...done
Deleting buffer (Ka|jb)[ba] ...done
Deleting buffer (Ka|jb)[bb] ...done

Correlation energy components}
 E2 and T2 for alpha/alpha pairs :     -0.013385733 Eh      0.000000000
 E2 and T2 for beta/beta   pairs :      0.000000000 Eh      0.000000000
 E2 and T2 for alpha/beta  pairs :     -0.058242668 Eh      0.000000000


-----------------------------------------------
 RI-MP2 CORRELATION ENERGY:     -0.071628401 Eh
-----------------------------------------------


---------------------
MP2 DENSITY FORMATION
---------------------

Completing the external part of the density      ... done
Storing the unrelaxed density                    ... done

Trace of the density to be diagonalized =  6.000000
Sum of eigenvalues =  6.000000
Natural Orbital Occupation Numbers:
N[  0] =   1.99999389
N[  1] =   1.96332926
N[  2] =   0.99299197
N[  3] =   0.99299197
N[  4] =   0.01472964
N[  5] =   0.00885809
N[  6] =   0.00407306
N[  7] =   0.00407306
N[  8] =   0.00359556
N[  9] =   0.00359556
N[ 10] =   0.00275659
N[ 11] =   0.00275659
N[ 12] =   0.00267304
N[ 13] =   0.00031093
N[ 14] =   0.00031093
N[ 15] =   0.00028454
N[ 16] =   0.00028454
N[ 17] =   0.00026285
N[ 18] =   0.00020446
N[ 19] =   0.00020446
N[ 20] =   0.00020196
N[ 21] =   0.00017624
N[ 22] =   0.00017624
N[ 23] =   0.00013665
N[ 24] =   0.00013665
N[ 25] =   0.00011606
N[ 26] =   0.00010366
N[ 27] =   0.00010366
N[ 28] =   0.00008509
N[ 29] =   0.00003248
N[ 30] =   0.00003248
N[ 31] =   0.00002928
N[ 32] =   0.00002928
N[ 33] =   0.00002371
N[ 34] =   0.00002371
N[ 35] =   0.00002256
N[ 36] =   0.00002159
N[ 37] =   0.00002159
N[ 38] =   0.00002114
N[ 39] =   0.00002114
N[ 40] =   0.00001836
N[ 41] =   0.00001836
N[ 42] =   0.00001729
N[ 43] =   0.00001729
N[ 44] =   0.00001728
N[ 45] =   0.00001604
N[ 46] =   0.00001604
N[ 47] =   0.00001369
N[ 48] =   0.00001355
N[ 49] =   0.00001355
N[ 50] =   0.00001145
N[ 51] =   0.00001145
N[ 52] =   0.00000940
N[ 53] =   0.00000902
N[ 54] =   0.00000060
N[ 55] =   0.00000044
N[ 56] =   0.00000001

                *********************************************
                * UNRELAXED MP2 DENSITY POPULATION ANALYSIS *
                *********************************************

------------------------------------------------------------------------------
                           ORCA POPULATION ANALYSIS
------------------------------------------------------------------------------
Input electron density              ... mol.pmp2ur
Input spin density                  ... mol.rmp2ur
BaseName (.gbw .S,...)              ... mol

                    ********************************
                    * MULLIKEN POPULATION ANALYSIS *
                    ********************************

------------------------------------------
MULLIKEN ATOMIC CHARGES AND SPIN DENSITIES
------------------------------------------
   0 C :   -0.000000    2.000000
Sum of atomic charges       :   -0.0000000
Sum of atomic spin densities:    2.0000000

---------------------------------------------------
MULLIKEN REDUCED ORBITAL CHARGES AND SPIN DENSITIES
---------------------------------------------------
CHARGE
  0 C s       :     3.970997  s :     3.970997
      pz      :     0.993686  p :     2.008853
      px      :     0.817892
      py      :     0.197276
      dz2     :     0.004232  d :     0.018461
      dxz     :     0.004014
      dyz     :     0.003144
      dx2y2   :     0.003407
      dxy     :     0.003664
      f0      :     0.000250  f :     0.001499
      f+1     :     0.000276
      f-1     :     0.000207
      f+2     :     0.000217
      f-2     :     0.000216
      f+3     :     0.000165
      f-3     :     0.000167
      g0      :     0.000024  g :     0.000191
      g+1     :     0.000026
      g-1     :     0.000021
      g+2     :     0.000022
      g-2     :     0.000022
      g+3     :     0.000020
      g-3     :     0.000020
      g+4     :     0.000017
      g-4     :     0.000017

SPIN
  0 C s       :     0.010196  s :     0.010196
      pz      :     0.986443  p :     1.977706
      px      :     0.808946
      py      :     0.182318
      dz2     :     0.002870  d :     0.011382
      dxz     :     0.003203
      dyz     :     0.002045
      dx2y2   :     0.001649
      dxy     :     0.001616
      f0      :     0.000115  f :     0.000647
      f+1     :     0.000131
      f-1     :     0.000087
      f+2     :     0.000093
      f-2     :     0.000093
      f+3     :     0.000063
      f-3     :     0.000065
      g0      :     0.000009  g :     0.000069
      g+1     :     0.000011
      g-1     :     0.000007
      g+2     :     0.000008
      g-2     :     0.000008
      g+3     :     0.000007
      g-3     :     0.000007
      g+4     :     0.000005
      g-4     :     0.000005


                     *******************************
                     * LOEWDIN POPULATION ANALYSIS *
                     *******************************

-----------------------------------------
LOEWDIN ATOMIC CHARGES AND SPIN DENSITIES
-----------------------------------------
   0 C :   -0.000000    2.000000

--------------------------------------------------
LOEWDIN REDUCED ORBITAL CHARGES AND SPIN DENSITIES
--------------------------------------------------
CHARGE
  0 C s       :     3.970997  s :     3.970997
      pz      :     0.993686  p :     2.008853
      px      :     0.817892
      py      :     0.197276
      dz2     :     0.004232  d :     0.018461
      dxz     :     0.004014
      dyz     :     0.003144
      dx2y2   :     0.003407
      dxy     :     0.003664
      f0      :     0.000250  f :     0.001499
      f+1     :     0.000276
      f-1     :     0.000207
      f+2     :     0.000217
      f-2     :     0.000216
      f+3     :     0.000165
      f-3     :     0.000167
      g0      :     0.000024  g :     0.000191
      g+1     :     0.000026
      g-1     :     0.000021
      g+2     :     0.000022
      g-2     :     0.000022
      g+3     :     0.000020
      g-3     :     0.000020
      g+4     :     0.000017
      g-4     :     0.000017

SPIN
  0 C s       :     0.010196  s :     0.010196
      pz      :     0.986443  p :     1.977706
      px      :     0.808946
      py      :     0.182318
      dz2     :     0.002870  d :     0.011382
      dxz     :     0.003203
      dyz     :     0.002045
      dx2y2   :     0.001649
      dxy     :     0.001616
      f0      :     0.000115  f :     0.000647
      f+1     :     0.000131
      f-1     :     0.000087
      f+2     :     0.000093
      f-2     :     0.000093
      f+3     :     0.000063
      f-3     :     0.000065
      g0      :     0.000009  g :     0.000069
      g+1     :     0.000011
      g-1     :     0.000007
      g+2     :     0.000008
      g-2     :     0.000008
      g+3     :     0.000007
      g-3     :     0.000007
      g+4     :     0.000005
      g-4     :     0.000005


                      *****************************
                      * MAYER POPULATION ANALYSIS *
                      *****************************

  NA   - Mulliken gross atomic population
  ZA   - Total nuclear charge
  QA   - Mulliken gross atomic charge
  VA   - Mayer's total valence
  BVA  - Mayer's bonded valence
  FA   - Mayer's free valence

  ATOM       NA         ZA         QA         VA         BVA        FA
  0 C      6.0000     6.0000    -0.0000     2.1729     0.0000     2.1729




-------
TIMINGS
-------

Total time                :    0.180 sec
Integral trafo            :    0.149 sec ( 82.9%)
I/O of integrals          :    0.000 sec (  0.0%)
K(i,j) Operators          :    0.000 sec (  0.2%)
T(i,j) pair energies      :    0.000 sec (  0.0%)
V-calculation             :    0.008 sec (  4.3%)
V**(-1/2)                 :    0.001 sec (  0.4%)
Gamma(ia|P)               :    0.000 sec (  0.0%)
Gamma-Trafo               :    0.000 sec (  0.0%)
D(virtual)                :    0.000 sec (  0.0%)
D(internal)               :    0.000 sec (  0.0%)
W(virtual)                :    0.000 sec (  0.0%)
W(internal)               :    0.000 sec (  0.0%)
L(virtual)                :    0.000 sec (  0.0%)
L(internal)               :    0.000 sec (  0.0%)
G(D)                      :    0.000 sec (  0.0%)
G(Z)                      :    0.000 sec (  0.0%)
Z-Vector Solution         :    0.000 sec (  0.0%)
3-Index Derivative        :    0.000 sec (  0.0%)
2-Index Derivative        :    0.000 sec (  0.0%)
Separable Gradient        :    0.000 sec (  0.0%)


---------------------------------------
MP2 TOTAL ENERGY:      -37.765255615 Eh
---------------------------------------

-------------------------   --------------------
FINAL SINGLE POINT ENERGY       -37.765255614888
-------------------------   --------------------


                            ***************************************
                            *     ORCA property calculations      *
                            ***************************************

                                    ---------------------
                                    Active property flags
                                    ---------------------
   (+) Dipole Moment


------------------------------------------------------------------------------
                       ORCA ELECTRIC PROPERTIES CALCULATION
------------------------------------------------------------------------------

Dipole Moment Calculation                       ... on
Quadrupole Moment Calculation                   ... off
Polarizability Calculation                      ... off
GBWName                                         ... mol.gbw
Electron density file                           ... mol.scfp.tmp
The origin for moment calculation is the CENTER OF MASS  = ( 0.000000,  0.000000  0.000000)

-------------
DIPOLE MOMENT
-------------
                                X             Y             Z
Electronic contribution:      0.00000       0.00000      -0.00000
Nuclear contribution   :      0.00000       0.00000       0.00000
                        -----------------------------------------
Total Dipole Moment    :      0.00000       0.00000      -0.00000
                        -----------------------------------------
Magnitude (a.u.)       :      0.00000
Magnitude (Debye)      :      0.00000


                         *** MP2 UNRELAXED DENSITY ***

------------------------------------------------------------------------------
                       ORCA ELECTRIC PROPERTIES CALCULATION
------------------------------------------------------------------------------

Dipole Moment Calculation                       ... on
Quadrupole Moment Calculation                   ... off
Polarizability Calculation                      ... off
GBWName                                         ... mol.gbw
Electron density file                           ... mol.pmp2ur
The origin for moment calculation is the CENTER OF MASS  = ( 0.000000,  0.000000  0.000000)

-------------
DIPOLE MOMENT
-------------
                                X             Y             Z
Electronic contribution:      0.00000       0.00000      -0.00000
Nuclear contribution   :      0.00000       0.00000       0.00000
                        -----------------------------------------
Total Dipole Moment    :      0.00000       0.00000      -0.00000
                        -----------------------------------------
Magnitude (a.u.)       :      0.00000
Magnitude (Debye)      :      0.00000


Timings for individual modules:

Sum of individual times         ...        3.923 sec (=   0.065 min)
GTO integral calculation        ...        0.504 sec (=   0.008 min)  12.9 %
SCF iterations                  ...        2.837 sec (=   0.047 min)  72.3 %
MP2 module                      ...        0.582 sec (=   0.010 min)  14.8 %


                 $$$$$$$$$$$$$$$$  JOB NUMBER  2 $$$$$$$$$$$$$$


                       ****************************
                       * Single Point Calculation *
                       ****************************

---------------------------------
CARTESIAN COORDINATES (ANGSTROEM)
---------------------------------
  C      0.000000    0.000000    0.000000

----------------------------
CARTESIAN COORDINATES (A.U.)
----------------------------
  NO LB      ZA    FRAG     MASS         X           Y           Z
   0 C     6.0000    0    12.011    0.000000    0.000000    0.000000

--------------------------------
INTERNAL COORDINATES (ANGSTROEM)
--------------------------------
 C      0   0   0     0.000000000000     0.00000000     0.00000000

---------------------------
INTERNAL COORDINATES (A.U.)
---------------------------
 C      0   0   0     0.000000000000     0.00000000     0.00000000

---------------------
BASIS SET INFORMATION
---------------------
There are 1 groups of distinct atoms

 Group   1 Type C   : 15s8p3d2f1g contracted to 7s4p3d2f1g pattern {8211111/5111/111/11/1}

Atom   0C    basis set group =>   1


           ************************************************************
           *        Program running with 4 parallel MPI-processes     *
           *              working on a common directory               *
           ************************************************************
------------------------------------------------------------------------------
                           ORCA GTO INTEGRAL CALCULATION
------------------------------------------------------------------------------

                         BASIS SET STATISTICS AND STARTUP INFO

 # of primitive gaussian shells          ...   29
 # of primitive gaussian functions       ...   77
 # of contracted shells                  ...   17
 # of contracted basis functions         ...   57
 Highest angular momentum                ...    4
 Maximum contraction depth               ...    8
 Integral package used                   ... LIBINT
 Integral threshhold            Thresh   ...  1.000e-12
 Primitive cut-off              TCut     ...  1.000e-14


------------------------------ INTEGRAL EVALUATION ----------------------------


 * One electron integrals 
 Pre-screening matrix                    ... done
 Shell pair data                         ... done (   0.000 sec)



           ************************************************************
           *        Program running with 4 parallel MPI-processes     *
           *              working on a common directory               *
           ************************************************************
-------------------------------------------------------------------------------
                                 ORCA SCF
-------------------------------------------------------------------------------

------------
SCF SETTINGS
------------
Hamiltonian:
 Ab initio Hamiltonian  Method          .... Hartree-Fock(GTOs)


General Settings:
 Integral files         IntName         .... mol_job2
 Hartree-Fock type      HFTyp           .... CASSCF
 Total Charge           Charge          ....    0
 Multiplicity           Mult            ....    3
 Number of Electrons    NEL             ....    6
 Basis Dimension        Dim             ....   57
 Nuclear Repulsion      ENuc            ....      0.0000000000 Eh


Diagonalization of the overlap matrix:
Smallest eigenvalue                        ... 6.128e-03
Time for diagonalization                   ...    0.006 sec
Threshold for overlap eigenvalues          ... 1.000e-08
Number of eigenvalues below threshold      ... 0
Time for construction of square roots      ...    0.001 sec
Total time needed                          ...    0.007 sec

---------------------
INITIAL GUESS: MOREAD
---------------------
Guess MOs are being read from file: mol.mp2nat
Input Geometry matches current geometry (good)
Input basis set matches current basis set (good)
MOs were renormalized
Gram-Schmidt orthogonalization of all MOs with pivot on actives
                      ------------------
                      INITIAL GUESS DONE (   0.0 sec)
                      ------------------


 ... the calculation is a CASSCF calculation -I'm leaving here GOOD LUCK!!!



           ************************************************************
           *        Program running with 4 parallel MPI-processes     *
           *              working on a common directory               *
           ************************************************************
-------------------------------------------------------------------------------
                              ORCA-CASSCF
-------------------------------------------------------------------------------

Setting up the integral package       ... done
Building the CAS space                ... done (13 configurations for Mult=3)

SYSTEM-SPECIFIC SETTINGS:
Number of active electrons          ...    4
Number of active orbitals           ...    4
Total number of electrons           ...    6
Total number of orbitals            ...   57

Determined orbital ranges:
   Internal       0 -    0 (   1 orbitals)
   Active         1 -    4 (   4 orbitals)
   External       5 -   56 (  52 orbitals)
Number of rotation parameters      ...    264

CI-STEP:
CI strategy                         ... General CI
Number of multiplicity blocks       ...    1
BLOCK  1 WEIGHT=   1.0000
  Multiplicity                      ...    3
  #(Configurations)                 ...   13
  #(CSFs)                           ...   15
  #(Roots)                          ...    1
    ROOT=0 WEIGHT=    1.000000

  PrintLevel                        ...    1
  N(GuessMat)                       ...       512
  MaxDim(CI)                        ...        10
  MaxIter(CI)                       ...        64
  Energy Tolerance CI               ...  1.00e-09
  Residual Tolerance CI             ...  1.00e-09
  Shift(CI)                         ...  1.00e-04

INTEGRAL-TRANSFORMATION-STEP:
  Algorithm                         ... EXACT

ORBITAL-IMPROVEMENT-STEP:
  Algorithm                         ... SuperCI(PT)
  Default Parametrization           ... CAYLEY
  Act-Act rotations                 ... depends on algorithm used

  Note: SuperCI(PT) will ignore level shift, gradscaling, FreezeIE, FreezeAct and FreezeGrad

  MaxRot                            ... 2.00e-01 
  Max. no of vectors (DIIS)         ... 15
  DThresh (cut-off) metric          ... 1.00e-06
  Switch step at gradient           ...  3.00e-02 
  Switch step at iteration          ...        50   
  Switch step to                    ... SuperCI(PT)    

SCF-SETTINGS:
  Incremental                       ... on
  RIJCOSX approximation             ... off
  RI-JK approximation               ... off
  AO integral handling              ... DIRECT
  Integral Neglect Thresh           ...  1.00e-12
  Primitive cutoff TCut             ...  1.00e-14
  Energy convergence tolerance      ...  1.00e-08
  Orbital gradient convergence      ...  1.00e-05
  Max. number of iterations         ...        75  

FINAL ORBITALS:
  Active   Orbitals                 ... natural 
  Internal Orbitals                 ... canonical 
  External Orbitals                 ... canonical 

------------------
CAS-SCF ITERATIONS
------------------


MACRO-ITERATION   1: 
   --- Inactive Energy E0 = -32.36064981 Eh
CI-ITERATION   0: 
   -37.706925634   0.000000000000 (    0.00)
   CI-PROBLEM SOLVED
   DENSITIES MADE

                 <<<<<<<<<<<<<<<<<<INITIAL CI STATE CHECK>>>>>>>>>>>>>>>>>>

BLOCK  1 MULT= 3 NROOTS= 1 
ROOT   0:  E=     -37.7069256338 Eh
      0.97913 [     0]: 2110
      0.02087 [    12]: 0112

                 <<<<<<<<<<<<<<<<<<INITIAL CI STATE CHECK>>>>>>>>>>>>>>>>>>

   E(CAS)=   -37.706925634 Eh DE=     0.000000000
   --- Canonicalize Internal Space
   --- Canonicalize External Space
   --- Energy gap subspaces: Ext-Act = 0.051   Act-Int = 10.627
   N(occ)=  1.95825 1.00000 1.00000 0.04175
   ||g|| =      0.073344712 Max(G)=     0.052745664 Rot=25,1
   --- Orbital Update [SuperCI(PT)]
   --- SX_PT (Skipped TA=0 IT=0): ||X|| =      0.045398680 Max(X)(30,4) =     -0.041264182 
   --- SFit(Active Orbitals)

MACRO-ITERATION   2: 
   --- Inactive Energy E0 = -32.35931327 Eh
CI-ITERATION   0: 
   -37.707782318   0.000000000000 (    0.00)
   CI-PROBLEM SOLVED
   DENSITIES MADE
   E(CAS)=   -37.707782318 Eh DE=    -0.000856685
   --- Canonicalize Internal Space
   --- Canonicalize External Space
   --- Energy gap subspaces: Ext-Act = 0.068   Act-Int = 10.622
   N(occ)=  1.95452 1.00000 1.00000 0.04548
   ||g|| =      0.019809541 Max(G)=     0.010011421 Rot=25,1
   --- Orbital Update [SuperCI(PT)]
   --- SX_PT (Skipped TA=0 IT=0): ||X|| =      0.008711897 Max(X)(30,4) =     -0.006128270 
   --- SFit(Active Orbitals)

MACRO-ITERATION   3: 
   --- Inactive Energy E0 = -32.35893120 Eh
CI-ITERATION   0: 
   -37.707849245   0.000000000000 (    0.00)
   CI-PROBLEM SOLVED
   DENSITIES MADE
   E(CAS)=   -37.707849245 Eh DE=    -0.000066926
   --- Canonicalize Internal Space
   --- Canonicalize External Space
   --- Energy gap subspaces: Ext-Act = 0.070   Act-Int = 10.622
   N(occ)=  1.95392 1.00000 1.00000 0.04608
   ||g|| =      0.005102520 Max(G)=    -0.002583416 Rot=17,1
   --- Orbital Update [SuperCI(PT)]
   --- SX_PT (Skipped TA=0 IT=0): ||X|| =      0.002056542 Max(X)(14,4) =     -0.000999556 
   --- SFit(Active Orbitals)

MACRO-ITERATION   4: 
   --- Inactive Energy E0 = -32.35892897 Eh
CI-ITERATION   0: 
   -37.707854926   0.000000000000 (    0.00)
   CI-PROBLEM SOLVED
   DENSITIES MADE
   E(CAS)=   -37.707854926 Eh DE=    -0.000005681
   --- Canonicalize Internal Space
   --- Canonicalize External Space
   --- Energy gap subspaces: Ext-Act = 0.070   Act-Int = 10.622
   N(occ)=  1.95386 1.00000 1.00000 0.04614
   ||g|| =      0.000690598 Max(G)=     0.000384593 Rot=8,1
   --- Orbital Update [SuperCI(PT)]
   --- SX_PT (Skipped TA=0 IT=0): ||X|| =      0.000397108 Max(X)(5,4) =     -0.000220036 
   --- SFit(Active Orbitals)

MACRO-ITERATION   5: 
   --- Inactive Energy E0 = -32.35891881 Eh
CI-ITERATION   0: 
   -37.707855049   0.000000000000 (    0.00)
   CI-PROBLEM SOLVED
   DENSITIES MADE
   E(CAS)=   -37.707855049 Eh DE=    -0.000000124
   --- Canonicalize Internal Space
   --- Canonicalize External Space
   --- Energy gap subspaces: Ext-Act = 0.070   Act-Int = 10.622
   N(occ)=  1.95386 1.00000 1.00000 0.04614
   ||g|| =      0.000074069 Max(G)=     0.000047571 Rot=9,1
   --- Orbital Update [SuperCI(PT)]
   --- SX_PT (Skipped TA=0 IT=0): ||X|| =      0.000034033 Max(X)(14,4) =     -0.000023393 
   --- SFit(Active Orbitals)

MACRO-ITERATION   6: 
   --- Inactive Energy E0 = -32.35891758 Eh
CI-ITERATION   0: 
   -37.707855050   0.000000000000 (    0.00)
   CI-PROBLEM SOLVED
   DENSITIES MADE
   E(CAS)=   -37.707855050 Eh DE=    -0.000000001
   --- Canonicalize Internal Space
   --- Canonicalize External Space
   --- Energy gap subspaces: Ext-Act = 0.070   Act-Int = 10.622
   N(occ)=  1.95386 1.00000 1.00000 0.04614
   ||g|| =      0.000010230 Max(G)=     0.000006589 Rot=9,1
                     ---- THE CAS-SCF ENERGY   HAS CONVERGED ----
                            --- FINALIZING ORBITALS ---
                    ---- DOING ONE FINAL ITERATION FOR PRINTING ----
   --- Forming Natural Orbitals
   --- Canonicalize Internal Space
   --- Canonicalize External Space

MACRO-ITERATION   7: 
   --- Inactive Energy E0 = -32.35891758 Eh
   --- All densities will be recomputed
CI-ITERATION   0: 
   -37.707855050   0.000000000000 (    0.00)
   CI-PROBLEM SOLVED
   DENSITIES MADE
   E(CAS)=   -37.707855050 Eh DE=    -0.000000000
   --- Energy gap subspaces: Ext-Act = 0.070   Act-Int = 10.622
   N(occ)=  1.95386 1.00000 1.00000 0.04614
   ||g|| =      0.000010230 Max(G)=    -0.000006589 Rot=9,1
--------------
CASSCF RESULTS
--------------

Final CASSCF energy       : -37.707855050 Eh   -1026.0829 eV

----------------
ORBITAL ENERGIES
----------------

  NO   OCC          E(Eh)            E(eV) 
   0   2.0000     -11.318300      -307.9866 
   1   1.9539      -0.696069       -18.9410 
   2   1.0000      -0.127046        -3.4571 
   3   1.0000      -0.127046        -3.4571 
   4   0.0461       0.132175         3.5967 
   5   0.0000       0.201724         5.4892 
   6   0.0000       0.230251         6.2654 
   7   0.0000       0.230251         6.2654 
   8   0.0000       0.307936         8.3794 
   9   0.0000       0.635024        17.2799 
  10   0.0000       0.637424        17.3452 
  11   0.0000       0.637424        17.3452 
  12   0.0000       0.644661        17.5421 
  13   0.0000       0.644661        17.5421 
  14   0.0000       0.927750        25.2454 
  15   0.0000       0.957984        26.0681 
  16   0.0000       0.957984        26.0681 
  17   0.0000       1.720193        46.8088 
  18   0.0000       1.899684        51.6930 
  19   0.0000       1.903229        51.7895 
  20   0.0000       1.903229        51.7895 
  21   0.0000       1.913563        52.0707 
  22   0.0000       1.913563        52.0707 
  23   0.0000       1.930746        52.5383 
  24   0.0000       1.930746        52.5383 
  25   0.0000       2.099301        57.1249 
  26   0.0000       2.104615        57.2695 
  27   0.0000       2.104615        57.2695 
  28   0.0000       2.120328        57.6971 
  29   0.0000       2.120328        57.6971 
  30   0.0000       3.129049        85.1457 
  31   0.0000       3.144389        85.5632 
  32   0.0000       3.144389        85.5632 
  33   0.0000       5.091963       138.5594 
  34   0.0000       5.095064       138.6437 
  35   0.0000       5.095064       138.6437 
  36   0.0000       5.104387       138.8974 
  37   0.0000       5.104387       138.8974 
  38   0.0000       5.120000       139.3223 
  39   0.0000       5.120000       139.3223 
  40   0.0000       5.142011       139.9212 
  41   0.0000       5.142011       139.9212 
  42   0.0000       6.231040       169.5552 
  43   0.0000       6.236391       169.7008 
  44   0.0000       6.236391       169.7008 
  45   0.0000       6.252082       170.1278 
  46   0.0000       6.252082       170.1278 
  47   0.0000       6.278307       170.8414 
  48   0.0000       6.278307       170.8414 
  49   0.0000       6.282271       170.9493 
  50   0.0000       6.290933       171.1850 
  51   0.0000       6.290933       171.1850 
  52   0.0000       6.316906       171.8918 
  53   0.0000       6.316906       171.8918 
  54   0.0000       7.228864       196.7074 
  55   0.0000      27.523625       748.9559 
  56   0.0000     147.863771      4023.5778 


---------------------------------------------
CAS-SCF STATES FOR BLOCK  1 MULT= 3 NROOTS= 1
---------------------------------------------

ROOT   0:  E=     -37.7078550500 Eh
      0.97693 [     0]: 2110
      0.02307 [    12]: 0112

----------------------------------------
  Spin-Determinant CI Printing   
----------------------------------------  
ROOT   0:  E=     -37.7078550500 Eh

CFG[2110]      0.976932193 
------------------------------
   [2uu0]      0.988398802
CFG[0112]      0.023067807 
------------------------------
   [0uu2]     -0.151880899



--------------
DENSITY MATRIX
--------------

                   0          1          2          3    
      0       1.953864  -0.000000   0.000000   0.000000
      1      -0.000000   1.000000  -0.000000   0.000000
      2       0.000000  -0.000000   1.000000  -0.000000
      3       0.000000   0.000000  -0.000000   0.046136
Trace of the electron density:  4.000000

-------------------
SPIN-DENSITY MATRIX
-------------------

                   0          1          2          3    
      0       0.000000   0.000000  -0.000000  -0.000000
      1       0.000000   1.000000   0.000000  -0.000000
      2      -0.000000   0.000000   1.000000   0.000000
      3      -0.000000  -0.000000   0.000000   0.000000
Trace of the spin density:  2.000000

-----------------
ENERGY COMPONENTS
-----------------

One electron energy          :    -50.449444752 Eh       -1372.7992 eV
Two electron energy          :     12.741589702 Eh         346.7163 eV
Nuclear repuslion energy     :      0.000000000 Eh           0.0000 eV
                               ----------------
                                  -37.707855050

Kinetic energy               :     37.707620572 Eh        1026.0765 eV
Potential energy             :    -75.415475622 Eh       -2052.1594 eV
Virial ratio                 :     -2.000006218 
                               ----------------
                                  -37.707855050

Core energy                  :    -32.358917580 Eh     -880.5309 eV


----------------------------
LOEWDIN ORBITAL-COMPOSITIONS
----------------------------

                      0         1         2         3         4         5   
                 -11.31830  -0.69607  -0.12705  -0.12705   0.13217   0.20172
                   2.00000   1.95386   1.00000   1.00000   0.04614   0.00000
                  --------  --------  --------  --------  --------  --------
 0 C  s             100.0     100.0       0.0       0.0       0.0       0.0
 0 C  pz              0.0       0.0      12.9      86.8       0.3       0.3
 0 C  px              0.0       0.0      69.7      12.1      18.2      18.2
 0 C  py              0.0       0.0      17.5       1.1      81.4      81.4

                      6         7         8         9        10        11   
                   0.23025   0.23025   0.30794   0.63502   0.63742   0.63742
                   0.00000   0.00000   0.00000   0.00000   0.00000   0.00000
                  --------  --------  --------  --------  --------  --------
 0 C  s               0.0       0.0     100.0       0.0       0.0       0.0
 0 C  pz              4.5      95.1       0.0       0.0       0.0       0.0
 0 C  px             77.1       4.7       0.0       0.0       0.0       0.0
 0 C  py             18.4       0.2       0.0       0.0       0.0       0.0
 0 C  dz2             0.0       0.0       0.0      24.5       0.5       0.5
 0 C  dxz             0.0       0.0       0.0       0.2       6.5      11.9
 0 C  dyz             0.0       0.0       0.0       0.8      40.3      40.4
 0 C  dx2y2           0.0       0.0       0.0      29.9      28.7      31.0
 0 C  dxy             0.0       0.0       0.0      44.5      24.0      16.2

                     12        13        14        15        16        17   
                   0.64466   0.64466   0.92775   0.95798   0.95798   1.72019
                   0.00000   0.00000   0.00000   0.00000   0.00000   0.00000
                  --------  --------  --------  --------  --------  --------
 0 C  s               0.0       0.0       0.0       0.0       0.0     100.0
 0 C  pz              0.0       0.0       0.3      99.6       0.0       0.0
 0 C  px              0.0       0.0      18.2       0.0      81.7       0.0
 0 C  py              0.0       0.0      81.4       0.3      18.2       0.0
 0 C  dz2             0.0      74.5       0.0       0.0       0.0       0.0
 0 C  dxz            81.5       0.0       0.0       0.0       0.0       0.0
 0 C  dyz            18.2       0.3       0.0       0.0       0.0       0.0
 0 C  dx2y2           0.2      10.1       0.0       0.0       0.0       0.0
 0 C  dxy             0.2      15.0       0.0       0.0       0.0       0.0

                     18        19        20        21        22        23   
                   1.89968   1.90323   1.90323   1.91356   1.91356   1.93075
                   0.00000   0.00000   0.00000   0.00000   0.00000   0.00000
                  --------  --------  --------  --------  --------  --------
 0 C  f0              0.7       7.5      28.7       1.0       0.2      37.3
 0 C  f+1             6.6       5.2       0.2      11.6       0.3      32.3
 0 C  f-1            29.5       0.1       3.0      40.5       9.5       4.9
 0 C  f+2             0.5       8.3      16.8       9.8      49.2       7.2
 0 C  f-2             0.7       5.0      31.8       5.0      34.8      15.7
 0 C  f+3            58.2       5.4       0.3      29.4       6.0       0.5
 0 C  f-3             3.6      68.5      19.2       2.7       0.0       2.1

                     24        25        26        27        28        29   
                   1.93075   2.09930   2.10461   2.10461   2.12033   2.12033
                   0.00000   0.00000   0.00000   0.00000   0.00000   0.00000
                  --------  --------  --------  --------  --------  --------
 0 C  dz2             0.0      24.5       0.6       0.4       0.0      74.5
 0 C  dxz             0.0       0.2       8.5       9.8      81.3       0.2
 0 C  dyz             0.0       0.8      49.5      31.2      18.3       0.2
 0 C  dx2y2           0.0      30.0      21.9      37.8       0.3      10.1
 0 C  dxy             0.0      44.5      19.4      20.8       0.1      15.1
 0 C  f0             24.6       0.0       0.0       0.0       0.0       0.0
 0 C  f+1            43.9       0.0       0.0       0.0       0.0       0.0
 0 C  f-1            12.4       0.0       0.0       0.0       0.0       0.0
 0 C  f+2             8.3       0.0       0.0       0.0       0.0       0.0
 0 C  f-2             7.0       0.0       0.0       0.0       0.0       0.0
 0 C  f-3             3.9       0.0       0.0       0.0       0.0       0.0

                     30        31        32        33        34        35   
                   3.12905   3.14439   3.14439   5.09196   5.09506   5.09506
                   0.00000   0.00000   0.00000   0.00000   0.00000   0.00000
                  --------  --------  --------  --------  --------  --------
 0 C  pz              0.3       7.9      91.8       0.0       0.0       0.0
 0 C  px             18.2      76.4       5.3       0.0       0.0       0.0
 0 C  py             81.4      15.7       2.9       0.0       0.0       0.0
 0 C  g0              0.0       0.0       0.0      13.2       1.6       0.2
 0 C  g+1             0.0       0.0       0.0       0.3       8.1       1.8
 0 C  g-1             0.0       0.0       0.0       1.5      39.9       3.4
 0 C  g+2             0.0       0.0       0.0      11.9       0.0       8.1
 0 C  g-2             0.0       0.0       0.0      17.7       3.5       2.9
 0 C  g+3             0.0       0.0       0.0       1.3      35.1       4.9
 0 C  g-3             0.0       0.0       0.0       0.1       3.4       0.3
 0 C  g+4             0.0       0.0       0.0       2.1       8.4      74.9
 0 C  g-4             0.0       0.0       0.0      51.9       0.0       3.6

                     36        37        38        39        40        41   
                   5.10439   5.10439   5.12000   5.12000   5.14201   5.14201
                   0.00000   0.00000   0.00000   0.00000   0.00000   0.00000
                  --------  --------  --------  --------  --------  --------
 0 C  g0              0.0      29.6       1.4       0.0      51.3       2.7
 0 C  g+1             9.6       0.6       7.5       1.3       2.7      68.1
 0 C  g-1             2.3       2.0      34.8       0.1       1.8      14.2
 0 C  g+2             1.1       9.8       0.1      51.0      17.8       0.1
 0 C  g-2             1.0      14.2       0.1      34.3      23.8       2.6
 0 C  g+3             5.0       0.0      52.6       0.0       0.1       0.9
 0 C  g-3            80.4       0.0       3.2       0.6       0.8      11.1
 0 C  g+4             0.5       1.7       0.1      12.2       0.0       0.1
 0 C  g-4             0.1      42.0       0.3       0.5       1.5       0.1

                     42        43        44        45        46        47   
                   6.23104   6.23639   6.23639   6.25208   6.25208   6.27831
                   0.00000   0.00000   0.00000   0.00000   0.00000   0.00000
                  --------  --------  --------  --------  --------  --------
 0 C  f0              0.7      14.6      21.6       0.4       0.8      37.5
 0 C  f+1             6.6       4.6       0.8       1.8      10.0      28.1
 0 C  f-1            29.5       0.0       3.1      20.8      29.2       8.9
 0 C  f+2             0.5      13.6      11.4      36.3      22.8      11.3
 0 C  f-2             0.7      11.5      25.3      26.6      13.1      11.6
 0 C  f+3            58.2       4.6       1.1      13.8      21.6       0.0
 0 C  f-3             3.6      51.1      36.6       0.1       2.6       2.6

                     48        49        50        51        52        53   
                   6.27831   6.28227   6.29093   6.29093   6.31691   6.31691
                   0.00000   0.00000   0.00000   0.00000   0.00000   0.00000
                  --------  --------  --------  --------  --------  --------
 0 C  dz2             0.0      24.5       0.9       0.1      11.2      63.3
 0 C  dxz             0.0       0.2      15.0       3.3      67.6      13.9
 0 C  dyz             0.0       0.8      74.2       6.5      17.1       1.4
 0 C  dx2y2           0.0      30.0       4.2      55.5       2.7       7.6
 0 C  dxy             0.0      44.5       5.7      34.6       1.4      13.8
 0 C  f0             24.4       0.0       0.0       0.0       0.0       0.0
 0 C  f+1            48.1       0.0       0.0       0.0       0.0       0.0
 0 C  f-1             8.4       0.0       0.0       0.0       0.0       0.0
 0 C  f+2             4.1       0.0       0.0       0.0       0.0       0.0
 0 C  f-2            11.1       0.0       0.0       0.0       0.0       0.0
 0 C  f+3             0.5       0.0       0.0       0.0       0.0       0.0
 0 C  f-3             3.4       0.0       0.0       0.0       0.0       0.0

                     54        55        56   
                   7.22886  27.52362 147.86377
                   0.00000   0.00000   0.00000
                  --------  --------  --------
 0 C  s             100.0     100.0     100.0

----------------------------
LOEWDIN REDUCED ACTIVE MOs  
----------------------------

                      0         1         2         3         4         5   
                 -11.31830  -0.69607  -0.12705  -0.12705   0.13217   0.20172
                   2.00000   1.95386   1.00000   1.00000   0.04614   0.00000
                  --------  --------  --------  --------  --------  --------
 0 C  s             100.0     100.0       0.0       0.0       0.0       0.0
 0 C  pz              0.0       0.0      12.9      86.8       0.3       0.3
 0 C  px              0.0       0.0      69.7      12.1      18.2      18.2
 0 C  py              0.0       0.0      17.5       1.1      81.4      81.4

------------------------------------------------------------------------------
                           ORCA POPULATION ANALYSIS
------------------------------------------------------------------------------
Input electron density              ... mol_job2.scfp.tmp
Input spin density                  ... mol_job2.scfr.tmp
BaseName (.gbw .S,...)              ... mol_job2

                    ********************************
                    * MULLIKEN POPULATION ANALYSIS *
                    ********************************

------------------------------------------
MULLIKEN ATOMIC CHARGES AND SPIN DENSITIES
------------------------------------------
   0 C :   -0.000000    2.000000
Sum of atomic charges       :   -0.0000000
Sum of atomic spin densities:    2.0000000

---------------------------------------------------
MULLIKEN REDUCED ORBITAL CHARGES AND SPIN DENSITIES
---------------------------------------------------
CHARGE
  0 C s       :     3.953781  s :     3.953781
      pz      :     0.996856  p :     2.046134
      px      :     0.826083
      py      :     0.223195
      dz2     :     0.000020  d :     0.000083
      dxz     :     0.000000
      dyz     :     0.000001
      dx2y2   :     0.000025
      dxy     :     0.000037
      f0      :     0.000000  f :     0.000002
      f+1     :     0.000000
      f-1     :     0.000000
      f+2     :     0.000000
      f-2     :     0.000000
      f+3     :     0.000001
      f-3     :     0.000000
      g0      :     0.000000  g :     0.000000
      g+1     :     0.000000
      g-1     :     0.000000
      g+2     :     0.000000
      g-2     :     0.000000
      g+3     :     0.000000
      g-3     :     0.000000
      g+4     :     0.000000
      g-4     :     0.000000

SPIN
  0 C s       :     0.000000  s :     0.000000
      pz      :     0.996704  p :     2.000000
      px      :     0.817672
      py      :     0.185624
      dz2     :    -0.000000  d :     0.000000
      dxz     :     0.000000
      dyz     :     0.000000
      dx2y2   :    -0.000000
      dxy     :     0.000000
      f0      :     0.000000  f :     0.000000
      f+1     :     0.000000
      f-1     :     0.000000
      f+2     :     0.000000
      f-2     :     0.000000
      f+3     :     0.000000
      f-3     :     0.000000
      g0      :     0.000000  g :     0.000000
      g+1     :     0.000000
      g-1     :     0.000000
      g+2     :     0.000000
      g-2     :     0.000000
      g+3     :     0.000000
      g-3     :     0.000000
      g+4     :    -0.000000
      g-4     :     0.000000


                     *******************************
                     * LOEWDIN POPULATION ANALYSIS *
                     *******************************

-----------------------------------------
LOEWDIN ATOMIC CHARGES AND SPIN DENSITIES
-----------------------------------------
   0 C :   -0.000000    2.000000

--------------------------------------------------
LOEWDIN REDUCED ORBITAL CHARGES AND SPIN DENSITIES
--------------------------------------------------
CHARGE
  0 C s       :     3.953781  s :     3.953781
      pz      :     0.996856  p :     2.046134
      px      :     0.826083
      py      :     0.223195
      dz2     :     0.000020  d :     0.000083
      dxz     :     0.000000
      dyz     :     0.000001
      dx2y2   :     0.000025
      dxy     :     0.000037
      f0      :     0.000000  f :     0.000002
      f+1     :     0.000000
      f-1     :     0.000000
      f+2     :     0.000000
      f-2     :     0.000000
      f+3     :     0.000001
      f-3     :     0.000000
      g0      :     0.000000  g :     0.000000
      g+1     :     0.000000
      g-1     :     0.000000
      g+2     :     0.000000
      g-2     :     0.000000
      g+3     :     0.000000
      g-3     :     0.000000
      g+4     :     0.000000
      g-4     :     0.000000

SPIN
  0 C s       :     0.000000  s :     0.000000
      pz      :     0.996704  p :     2.000000
      px      :     0.817672
      py      :     0.185624
      dz2     :    -0.000000  d :     0.000000
      dxz     :     0.000000
      dyz     :     0.000000
      dx2y2   :    -0.000000
      dxy     :     0.000000
      f0      :     0.000000  f :     0.000000
      f+1     :     0.000000
      f-1     :     0.000000
      f+2     :     0.000000
      f-2     :     0.000000
      f+3     :     0.000000
      f-3     :     0.000000
      g0      :     0.000000  g :     0.000000
      g+1     :     0.000000
      g-1     :     0.000000
      g+2     :     0.000000
      g-2     :     0.000000
      g+3     :     0.000000
      g-3     :     0.000000
      g+4     :     0.000000
      g-4     :     0.000000


                      *****************************
                      * MAYER POPULATION ANALYSIS *
                      *****************************

  NA   - Mulliken gross atomic population
  ZA   - Total nuclear charge
  QA   - Mulliken gross atomic charge
  VA   - Mayer's total valence
  BVA  - Mayer's bonded valence
  FA   - Mayer's free valence

  ATOM       NA         ZA         QA         VA         BVA        FA
  0 C      6.0000     6.0000    -0.0000     2.1803     0.0000     2.1803



Transition Dipole Moments (a.u.) with input orbitals:
MO   0:
 MO   2:      0.065437396 (    -0.054627797,     -0.027340482,     -0.023459639)
 MO   3:      0.065437396 (     0.022740231,      0.006881096,     -0.060972004)
 MO   4:      0.071314696 (    -0.030451300,      0.064356370,     -0.004094128)
MO   1:
 MO   2:      0.930771884 (     0.777017736,      0.388886994,      0.333686447)
 MO   3:      0.930771884 (    -0.323453691,     -0.097875698,      0.867256800)
 MO   4:      0.877908512 (     0.374866006,     -0.792249114,      0.050400133)
MO   2:
MO   3:
MO   4:
CleanUpVectors: The p-vectors have cracked symmetry

-------------------------------------------------------------
 Forming the transition density       ... done in 0.000089 sec
-------------------------------------------------------------



==========================================
[...]
 0 C  dxy            14.8       0.4       0.0       0.0       0.0       0.0

                     18        19        20        21        22        23   
                   1.89968   1.90323   1.90323   1.91356   1.91356   1.93075
                   0.00000   0.00000   0.00000   0.00000   0.00000   0.00000
                  --------  --------  --------  --------  --------  --------
 0 C  f0              0.7       2.5      33.6       1.2       0.1      37.1
 0 C  f+1             6.6       3.9       1.5      11.8       0.0      32.5
 0 C  f-1            29.5       1.9       1.2      46.2       3.8       4.9
 0 C  f+2             0.5       0.4      24.6       3.6      55.5       7.1
 0 C  f-2             0.7       4.7      32.2       1.4      38.3      15.6
 0 C  f+3            58.2       4.5       1.3      33.2       2.2       0.5
 0 C  f-3             3.6      82.1       5.6       2.6       0.1       2.2

                     24        25        26        27        28        29   
                   1.93075   2.09930   2.10461   2.10461   2.12033   2.12033
                   0.00000   0.00000   0.00000   0.00000   0.00000   0.00000
                  --------  --------  --------  --------  --------  --------
 0 C  dz2             0.0      24.5       1.0       0.0       1.0      73.5
 0 C  dxz             0.0       0.2      17.9       0.4      79.8       1.7
 0 C  dyz             0.0       0.8      80.7       0.0      18.5       0.0
 0 C  dx2y2           0.0      30.0       0.0      59.7       0.7       9.7
 0 C  dxy             0.0      44.5       0.3      39.9       0.0      15.2
 0 C  f0             24.8       0.0       0.0       0.0       0.0       0.0
 0 C  f+1            43.6       0.0       0.0       0.0       0.0       0.0
 0 C  f-1            12.3       0.0       0.0       0.0       0.0       0.0
 0 C  f+2             8.3       0.0       0.0       0.0       0.0       0.0
 0 C  f-2             7.1       0.0       0.0       0.0       0.0       0.0
 0 C  f-3             3.9       0.0       0.0       0.0       0.0       0.0

                     30        31        32        33        34        35   
                   3.12905   3.14439   3.14439   5.09196   5.09506   5.09506
                   0.00000   0.00000   0.00000   0.00000   0.00000   0.00000
                  --------  --------  --------  --------  --------  --------
 0 C  pz              0.3      50.0      49.7       0.0       0.0       0.0
 0 C  px             18.2      38.5      43.2       0.0       0.0       0.0
 0 C  py             81.4      11.5       7.1       0.0       0.0       0.0
 0 C  g0              0.0       0.0       0.0      13.2       1.3       0.5
 0 C  g+1             0.0       0.0       0.0       0.3       6.1       3.7
 0 C  g-1             0.0       0.0       0.0       1.5      32.9      10.4
 0 C  g+2             0.0       0.0       0.0      11.9       0.2       7.9
 0 C  g-2             0.0       0.0       0.0      17.7       4.8       1.5
 0 C  g+3             0.0       0.0       0.0       1.3      27.8      12.1
 0 C  g-3             0.0       0.0       0.0       0.1       3.7       0.0
 0 C  g+4             0.0       0.0       0.0       2.1      22.9      60.4
 0 C  g-4             0.0       0.0       0.0      51.9       0.2       3.4

                     36        37        38        39        40        41   
                   5.10439   5.10439   5.12000   5.12000   5.14201   5.14201
                   0.00000   0.00000   0.00000   0.00000   0.00000   0.00000
                  --------  --------  --------  --------  --------  --------
 0 C  g0              2.2      27.4       0.1       1.4      53.3       0.6
 0 C  g+1            10.2       0.0       0.2       8.6       1.3      69.5
 0 C  g-1             1.0       3.3       2.9      31.9       0.0      16.1
 0 C  g+2             3.7       7.2      48.9       2.2      16.9       1.1
 0 C  g-2             0.0      15.2      32.9       1.5      26.4       0.0
 0 C  g+3             4.6       0.4       2.8      49.8       0.5       0.6
 0 C  g-3            74.4       6.0       0.1       3.7       0.1      11.9
 0 C  g+4             1.1       1.1      11.9       0.4       0.1       0.1
 0 C  g-4             2.7      39.4       0.3       0.5       1.5       0.0

                     42        43        44        45        46        47   
                   6.23104   6.23639   6.23639   6.25208   6.25208   6.27831
                   0.00000   0.00000   0.00000   0.00000   0.00000   0.00000
                  --------  --------  --------  --------  --------  --------
 0 C  f0              0.7      33.8       2.4       1.2       0.0      61.8
 0 C  f+1             6.6       1.5       3.9      10.3       1.6       0.0
 0 C  f-1            29.5       1.2       1.9      49.8       0.3       0.4
 0 C  f+2             0.5      24.7       0.4       0.7      58.4      15.2
 0 C  f-2             0.7      32.4       4.4       1.1      38.6      22.3
 0 C  f+3            58.2       1.3       4.5      35.1       0.4       0.2
 0 C  f-3             3.6       5.2      82.5       1.9       0.8       0.0

                     48        49        50        51        52        53   
                   6.27831   6.28227   6.29093   6.29093   6.31691   6.31691
                   0.00000   0.00000   0.00000   0.00000   0.00000   0.00000
                  --------  --------  --------  --------  --------  --------
 0 C  dz2             0.0      24.5       1.0       0.0       4.2      70.3
 0 C  dxz             0.0       0.2      18.3       0.0      77.8       3.7
 0 C  dyz             0.0       0.8      77.8       2.9      16.2       2.3
 0 C  dx2y2           0.0      30.0       2.6      57.1       0.1      10.2
 0 C  dxy             0.0      44.5       0.4      39.9       1.6      13.5
 0 C  f+1            76.2       0.0       0.0       0.0       0.0       0.0
 0 C  f-1            16.9       0.0       0.0       0.0       0.0       0.0
 0 C  f+2             0.2       0.0       0.0       0.0       0.0       0.0
 0 C  f-2             0.3       0.0       0.0       0.0       0.0       0.0
 0 C  f+3             0.4       0.0       0.0       0.0       0.0       0.0
 0 C  f-3             6.0       0.0       0.0       0.0       0.0       0.0

                     54        55        56   
                   7.22886  27.52363 147.86377
                   0.00000   0.00000   0.00000
                  --------  --------  --------
 0 C  s             100.0     100.0     100.0

----------------------------
LOEWDIN REDUCED ACTIVE MOs  
----------------------------

                      0         1         2         3         4         5   
                 -11.31830  -0.69607  -0.12705  -0.12705   0.13218   0.20172
                   2.00000   1.95386   1.00000   1.00000   0.04614   0.00000
                  --------  --------  --------  --------  --------  --------
 0 C  s             100.0     100.0       0.0       0.0       0.0       0.0
 0 C  pz              0.0       0.0       1.7      98.0       0.3       0.3
 0 C  px              0.0       0.0      79.8       2.0      18.2      18.2
 0 C  py              0.0       0.0      18.6       0.0      81.4      81.4

------------------------------------------------------------------------------
                           ORCA POPULATION ANALYSIS
------------------------------------------------------------------------------
Input electron density              ... mol_job3.scfp.tmp
Input spin density                  ... mol_job3.scfr.tmp
BaseName (.gbw .S,...)              ... mol_job3

                    ********************************
                    * MULLIKEN POPULATION ANALYSIS *
                    ********************************

------------------------------------------
MULLIKEN ATOMIC CHARGES AND SPIN DENSITIES
------------------------------------------
   0 C :   -0.000000    2.000000
Sum of atomic charges       :   -0.0000000
Sum of atomic spin densities:    2.0000000

---------------------------------------------------
MULLIKEN REDUCED ORBITAL CHARGES AND SPIN DENSITIES
---------------------------------------------------
CHARGE
  0 C s       :     3.953781  s :     3.953781
      pz      :     0.996856  p :     2.046134
      px      :     0.826083
      py      :     0.223194
      dz2     :     0.000020  d :     0.000083
      dxz     :     0.000000
      dyz     :     0.000001
      dx2y2   :     0.000025
      dxy     :     0.000037
      f0      :     0.000000  f :     0.000002
      f+1     :     0.000000
      f-1     :     0.000000
      f+2     :     0.000000
      f-2     :     0.000000
      f+3     :     0.000001
      f-3     :     0.000000
      g0      :     0.000000  g :     0.000000
      g+1     :     0.000000
      g-1     :     0.000000
      g+2     :     0.000000
      g-2     :     0.000000
      g+3     :     0.000000
      g-3     :     0.000000
      g+4     :     0.000000
      g-4     :     0.000000

SPIN
  0 C s       :     0.000000  s :     0.000000
      pz      :     0.996704  p :     2.000000
      px      :     0.817672
      py      :     0.185624
      dz2     :    -0.000000  d :     0.000000
      dxz     :     0.000000
      dyz     :     0.000000
      dx2y2   :    -0.000000
      dxy     :     0.000000
      f0      :     0.000000  f :     0.000000
      f+1     :     0.000000
      f-1     :     0.000000
      f+2     :     0.000000
      f-2     :     0.000000
      f+3     :     0.000000
      f-3     :     0.000000
      g0      :     0.000000  g :     0.000000
      g+1     :     0.000000
      g-1     :     0.000000
      g+2     :     0.000000
      g-2     :     0.000000
      g+3     :     0.000000
      g-3     :     0.000000
      g+4     :    -0.000000
      g-4     :     0.000000


                     *******************************
                     * LOEWDIN POPULATION ANALYSIS *
                     *******************************

-----------------------------------------
LOEWDIN ATOMIC CHARGES AND SPIN DENSITIES
-----------------------------------------
   0 C :   -0.000000    2.000000

--------------------------------------------------
LOEWDIN REDUCED ORBITAL CHARGES AND SPIN DENSITIES
--------------------------------------------------
CHARGE
  0 C s       :     3.953781  s :     3.953781
      pz      :     0.996856  p :     2.046134
      px      :     0.826083
      py      :     0.223194
      dz2     :     0.000020  d :     0.000083
      dxz     :     0.000000
      dyz     :     0.000001
      dx2y2   :     0.000025
      dxy     :     0.000037
      f0      :     0.000000  f :     0.000002
      f+1     :     0.000000
      f-1     :     0.000000
      f+2     :     0.000000
      f-2     :     0.000000
      f+3     :     0.000001
      f-3     :     0.000000
      g0      :     0.000000  g :     0.000000
      g+1     :     0.000000
      g-1     :     0.000000
      g+2     :     0.000000
      g-2     :     0.000000
      g+3     :     0.000000
      g-3     :     0.000000
      g+4     :     0.000000
      g-4     :     0.000000

SPIN
  0 C s       :     0.000000  s :     0.000000
      pz      :     0.996704  p :     2.000000
      px      :     0.817672
      py      :     0.185624
      dz2     :    -0.000000  d :     0.000000
      dxz     :     0.000000
      dyz     :     0.000000
      dx2y2   :    -0.000000
      dxy     :     0.000000
      f0      :     0.000000  f :     0.000000
      f+1     :     0.000000
      f-1     :     0.000000
      f+2     :     0.000000
      f-2     :     0.000000
      f+3     :     0.000000
      f-3     :     0.000000
      g0      :     0.000000  g :     0.000000
      g+1     :     0.000000
      g-1     :     0.000000
      g+2     :     0.000000
      g-2     :     0.000000
      g+3     :     0.000000
      g-3     :     0.000000
      g+4     :     0.000000
      g-4     :     0.000000


                      *****************************
                      * MAYER POPULATION ANALYSIS *
                      *****************************

  NA   - Mulliken gross atomic population
  ZA   - Total nuclear charge
  QA   - Mulliken gross atomic charge
  VA   - Mayer's total valence
  BVA  - Mayer's bonded valence
  FA   - Mayer's free valence

  ATOM       NA         ZA         QA         VA         BVA        FA
  0 C      6.0000     6.0000    -0.0000     2.1803     0.0000     2.1803




------------------------------------------
 Active MOs in an orthogonalized AO basis 
------------------------------------------

 Active MO  1   
 Energy     -0.69606904 
 Occupation 1.953865 
-----------------------------
  0 C  s        -0.66015361
  0 C  s        -0.54078515
  0 C  s        -0.48231511
  0 C  s        0.11628544
  0 C  s        0.11248019
  0 C  s        0.08427996
  0 C  s        -0.07616572
  0 C  dxy      0.00381494
  0 C  dx2y2    0.00312874
  0 C  dz2      0.00282972
  0 C  dxy      0.00169705
  0 C  dx2y2    0.00139180
  0 C  dz2      0.00125878
  0 C  dxy      0.00119511
  0 C  dx2y2    0.00098014
  0 C  dz2      0.00088647
  0 C  dyz      0.00051291
  0 C  dxz      -0.00024269
  0 C  dyz      0.00022817
  0 C  dyz      0.00016068
  0 C  dxz      -0.00010796

 Active MO  2   
 Energy     -0.12704555 
 Occupation 1.000000 
-----------------------------
  0 C  px       0.53740807
  0 C  px       0.48141536
  0 C  px       0.43582678
  0 C  px       0.29498718
  0 C  py       0.25925492
  0 C  py       0.23224307
  0 C  py       0.21025035
  0 C  py       0.14230690
  0 C  pz       0.07814393
  0 C  pz       0.07000209
  0 C  pz       0.06337311
  0 C  pz       0.04289377
  0 C  f-3      -0.00034525
  0 C  f-3      -0.00019472

 Active MO  3   
 Energy     -0.12704555 
 Occupation 1.000000 
-----------------------------
  0 C  pz       -0.59567360
  0 C  pz       -0.53361019
  0 C  pz       -0.48307891
  0 C  pz       -0.32696955
  0 C  px       0.08540291
  0 C  px       0.07650476
  0 C  px       0.06925999
  0 C  px       0.04687828
  0 C  py       0.00251514
  0 C  py       0.00225309
  0 C  py       0.00203973
  0 C  py       0.00138058
  0 C  f0       -0.00022131
  0 C  f-2      -0.00021963
  0 C  f+2      -0.00018578
  0 C  f0       -0.00012482
  0 C  f-2      -0.00012387
  0 C  f+2      -0.00010478

 Active MO  4   
 Energy     0.13217609 
 Occupation 0.046135 
-----------------------------
  0 C  py       -0.61283301
  0 C  py       -0.48411411
  0 C  py       -0.41720634
  0 C  px       0.28997225
  0 C  px       0.22906674
  0 C  px       0.19740820
  0 C  py       -0.17425013
  0 C  px       0.08244938
  0 C  pz       0.03898630
  0 C  pz       0.03079766
  0 C  pz       0.02654122
  0 C  pz       0.01108519
  0 C  f+3      -0.00296706
  0 C  f+3      -0.00250348
  0 C  f-1      -0.00211305
  0 C  f-1      -0.00178290
  0 C  f+1      0.00099983
  0 C  f+1      0.00084361
  0 C  f-3      0.00074165
  0 C  f-3      0.00062577
  0 C  f-2      0.00033309
  0 C  f0       0.00033295
  0 C  f-2      0.00028105
  0 C  f0       0.00028093
  0 C  f+2      0.00027318
  0 C  f+2      0.00023050

Transition Dipole Moments (a.u.) with input orbitals:
MO   0:
 MO   2:      0.065436988 (    -0.058438225,     -0.028191608,     -0.008497440)
 MO   3:      0.065436988 (    -0.009286788,     -0.000273499,      0.064774070)
 MO   4:      0.071314449 (    -0.030451194,      0.064356147,     -0.004094114)
MO   1:
 MO   2:      0.930772637 (    -0.831222565,     -0.400996100,     -0.120867186)
 MO   3:      0.930772637 (    -0.132094833,     -0.003890236,      0.921343325)
 MO   4:      0.877907087 (    -0.374865397,      0.792247828,     -0.050400052)
MO   2:
MO   3:
MO   4:
CleanUpVectors: The p-vectors have cracked symmetry

-------------------------------------------------------------
 Forming the transition density       ... done in 0.000092 sec
-------------------------------------------------------------



==========================================
CASSCF UV, CD spectra and dipole moments
==========================================
-------------------
ABSORPTION SPECTRUM
-------------------

Center of mass           = (  0.0000,  0.0000,  0.0000)
Nuclear contribution to the dipole moment =     0.000000,    0.000000,    0.000000 au

Calculating the dipole integrals          ... done

Ground state mult:    3
Ground state block:   0
Ground state root:    0


------------------------------------------------------------------------------
                                 DIPOLE MOMENTS
------------------------------------------------------------------------------
  Root  Block           TX        TY        TZ           |T|
                      (Debye)   (Debye)   (Debye)      (Debye)
------------------------------------------------------------------------------
    0    0            0.00000   0.00000   0.00000      0.00000

-------
TIMINGS
-------

Total time                       ...        0.5 sec
Sum of individual times          ...        0.3 sec ( 64.8%)

Calculation of AO operators
   F(Core) operator              ...        0.1 sec ( 12.5%)
   G(Act) operator               ...        0.1 sec ( 18.9%)
   J(AO) operators               ...        0.1 sec ( 31.2%)
Calculation of MO transformed quantities
   J(MO) operators               ...        0.0 sec (  0.0%)
   (pq|rs) integrals             ...        0.0 sec (  0.1%)
   AO->MO one electron integrals ...        0.0 sec (  0.8%)
Configuration interaction steps
   CI-setup phase                ...        0.0 sec (  0.1%)
   CI-solution phase             ...        0.0 sec (  0.8%)
   Generation of densities       ...        0.0 sec (  0.0%)
Orbital improvement steps
   Orbital gradient              ...        0.0 sec (  0.1%)
   O(1) converger                ...        0.0 sec (  0.0%)
Properties                       ...        0.0 sec (  0.3%)

-------------------------   --------------------
FINAL SINGLE POINT ENERGY       -37.707855050014
-------------------------   --------------------


                            ***************************************
                            *     ORCA property calculations      *
                            ***************************************

                                    ---------------------
                                    Active property flags
                                    ---------------------
   (+) Dipole Moment


------------------------------------------------------------------------------
                       ORCA ELECTRIC PROPERTIES CALCULATION
------------------------------------------------------------------------------

Dipole Moment Calculation                       ... on
Quadrupole Moment Calculation                   ... off
Polarizability Calculation                      ... off
GBWName                                         ... mol_job3.gbw
Electron density file                           ... mol_job3.scfp.tmp
The origin for moment calculation is the CENTER OF MASS  = ( 0.000000,  0.000000  0.000000)

-------------
DIPOLE MOMENT
-------------
                                X             Y             Z
Electronic contribution:      0.00000       0.00000       0.00000
Nuclear contribution   :      0.00000       0.00000       0.00000
                        -----------------------------------------
Total Dipole Moment    :      0.00000       0.00000       0.00000
                        -----------------------------------------
Magnitude (a.u.)       :      0.00000
Magnitude (Debye)      :      0.00000


Timings for individual modules:

Sum of individual times         ...        1.618 sec (=   0.027 min)
GTO integral calculation        ...        0.501 sec (=   0.008 min)  31.0 %
SCF iterations                  ...        0.246 sec (=   0.004 min)  15.2 %
CASSCF iterations               ...        0.871 sec (=   0.015 min)  53.8 %



                             ****ORCA TERMINATED NORMALLY****
TOTAL RUN TIME: 0 days 0 hours 0 minutes 8 seconds 498 msec
