[Molden Format]
[Title]
 Molden file created by orca_2mkl for BaseName=mol_job2

[Atoms] AU
C    1   6          0.0000000000         0.0000000000         0.0000000000 
[GTO]
  1 0
s   8 1.0 
    67025.0710290000         0.2107535794
    10039.9865380000         0.3944204850
     2284.9316911000         0.6814886693
      647.1412213000         1.1075026371
      211.0947233500         1.6902157449
       76.1776438620         2.3716464928
       29.6338391630         2.8799049310
       12.1877850810         2.7511958419
s   2 1.0 
       53.0260062990         1.2795470069
       15.2585027760         5.1103194100
s   1 1.0 
        5.2403957464         2.4685001408
s   1 1.0 
        2.2905022379         1.3269609194
s   1 1.0 
        0.6967328301         0.5435128276
s   1 1.0 
        0.2759933736         0.2713839026
s   1 1.0 
        0.1073988439         0.1337087402
p   5 1.0 
      105.1255508200         1.1978793681
       24.8844610660         1.5485209137
        7.8637230826         1.6674744875
        2.8407001835         1.5496517883
        1.1227137335         1.1575938834
p   1 1.0 
        0.4605072555         0.5407364982
p   1 1.0 
        0.1893753091         0.1780714443
p   1 1.0 
        0.0759837916         0.0568645084
d   1 1.0 
        1.8480000000         8.3502316859
d   1 1.0 
        0.6490000000         1.3378219059
d   1 1.0 
        0.2280000000         0.2144648217
f   1 1.0 
        1.4190000000        12.5302711484
f   1 1.0 
        0.4850000000         1.1192290943
g   1 1.0 
        1.0110000000         6.7847699297

[5D]
[9G]
[MO]
 Sym=     1a
 Ene= -1.13182995076367E+01
 Spin= Alpha
 Occup= 2.000000
  1      -0.547848726412
  2       0.000066776353
  3      -0.373503196229
  4      -0.176155006195
  5      -0.006925360187
  6       0.009633268920
  7       0.002781449257
  8      -0.000000000000
  9      -0.000000000000
 10      -0.000000000000
 11      -0.000000000000
 12       0.000000000000
 13       0.000000000000
 14      -0.000000000000
 15      -0.000000000000
 16      -0.000000000000
 17       0.000000000000
 18       0.000000000000
 19       0.000000000000
 20       0.000038330201
 21      -0.000003287429
 22       0.000006947717
 23       0.000042380612
 24       0.000051675713
 25      -0.000279829889
 26       0.000023999898
 27      -0.000050721852
 28      -0.000309399941
 29      -0.000377258886
 30       0.000011541240
 31      -0.000000989846
 32       0.000002091961
 33       0.000012760821
 34       0.000015559579
 35       0.000000000000
 36       0.000000000000
 37      -0.000000000000
 38       0.000000000000
 39       0.000000000000
 40      -0.000000000000
 41      -0.000000000000
 42      -0.000000000000
 43      -0.000000000000
 44       0.000000000000
 45      -0.000000000000
 46      -0.000000000000
 47       0.000000000000
 48      -0.000000000000
 49       0.000000376275
 50      -0.000000059853
 51       0.000000126495
 52       0.000000358104
 53       0.000000436645
 54       0.000000120263
 55      -0.000000030061
 56       0.000000149184
 57      -0.000000747420
 Sym=     1a
 Ene= -6.96069226354539E-01
 Spin= Alpha
 Occup= 1.953864
  1      -0.110796653078
  2      -0.016145883345
  3      -0.143842405326
  4      -0.090226534694
  5       0.307416342789
  6       0.585864662606
  7       0.251053357685
  8       0.000000000000
  9      -0.000000000000
 10      -0.000000000000
 11      -0.000000000000
 12      -0.000000000000
 13      -0.000000000000
 14       0.000000000000
 15      -0.000000000000
 16      -0.000000000000
 17       0.000000000000
 18      -0.000000000000
 19      -0.000000000000
 20      -0.000170473522
 21       0.000014620837
 22      -0.000030899962
 23      -0.000188487720
 24      -0.000229827669
 25      -0.003257280646
 26       0.000279364025
 27      -0.000590413370
 28      -0.003601482461
 29      -0.004391375314
 30       0.000243833094
 31      -0.000020912596
 32       0.000044197088
 33       0.000269599309
 34       0.000328729006
 35      -0.000000000000
 36      -0.000000000000
 37       0.000000000000
 38      -0.000000000000
 39      -0.000000000000
 40       0.000000000000
 41      -0.000000000000
 42      -0.000000000000
 43      -0.000000000000
 44       0.000000000000
 45      -0.000000000000
 46      -0.000000000000
 47       0.000000000000
 48      -0.000000000000
 49       0.000008793312
 50      -0.000001398740
 51       0.000002956123
 52       0.000008368686
 53       0.000010204143
 54       0.000002810474
 55      -0.000000702508
 56       0.000003486349
 57      -0.000017466766
 Sym=     1a
 Ene= -1.27045862460805E-01
 Spin= Alpha
 Occup= 1.000000
  1      -0.000000000000
  2      -0.000000000000
  3      -0.000000000000
  4      -0.000000000000
  5       0.000000000000
  6       0.000000000000
  7       0.000000000000
  8       0.280758706521
  9       0.140515980970
 10       0.120570446587
 11       0.312185718268
 12       0.156244780405
 13       0.134066622318
 14       0.302346746206
 15       0.151320506362
 16       0.129841324125
 17       0.112273064052
 18       0.056191168307
 19       0.048215115535
 20       0.000000000000
 21      -0.000000000000
 22       0.000000000000
 23       0.000000000000
 24       0.000000000000
 25       0.000000000000
 26      -0.000000000000
 27       0.000000000000
 28       0.000000000000
 29       0.000000000000
 30       0.000000000000
 31      -0.000000000000
 32       0.000000000000
 33       0.000000000000
 34       0.000000000000
 35       0.000024817430
 36       0.000021067213
 37       0.000017144663
 38       0.000012936807
 39       0.000031103926
 40      -0.000022885773
 41      -0.000100987211
 42       0.000076312635
 43       0.000064780863
 44       0.000052719172
 45       0.000039780178
 46       0.000095643363
 47      -0.000070372865
 48      -0.000310531752
 49      -0.000000000000
 50      -0.000000000000
 51      -0.000000000000
 52      -0.000000000000
 53      -0.000000000000
 54       0.000000000000
 55       0.000000000000
 56       0.000000000000
 57       0.000000000000
 Sym=     1a
 Ene= -1.27045862460741E-01
 Spin= Alpha
 Occup= 1.000000
  1      -0.000000000000
  2      -0.000000000000
  3      -0.000000000000
  4      -0.000000000000
  5       0.000000000000
  6       0.000000000000
  7       0.000000000000
  8      -0.116873059489
  9      -0.035365285840
 10       0.313364658678
 11      -0.129955364430
 12      -0.039323935127
 13       0.348441450886
 14      -0.125859638312
 15      -0.038084585995
 16       0.337459828411
 17      -0.046736561287
 18      -0.014142282715
 19       0.125311912252
 20      -0.000000000000
 21      -0.000000000000
 22       0.000000000000
 23      -0.000000000000
 24      -0.000000000000
 25      -0.000000000000
 26      -0.000000000000
 27       0.000000000000
 28      -0.000000000000
 29      -0.000000000000
 30      -0.000000000000
 31      -0.000000000000
 32       0.000000000000
 33      -0.000000000000
 34      -0.000000000000
 35       0.000064500927
 36      -0.000016384183
 37       0.000010899020
 38       0.000056050888
 39       0.000062445921
 40       0.000015424892
 41       0.000037201348
 42       0.000198337847
 43      -0.000050380727
 44       0.000033514064
 45       0.000172354303
 46       0.000192018782
 47       0.000047430944
 48       0.000114392701
 49      -0.000000000000
 50       0.000000000000
 51       0.000000000000
 52      -0.000000000000
 53      -0.000000000000
 54      -0.000000000000
 55      -0.000000000000
 56      -0.000000000000
 57      -0.000000000000
 Sym=     1a
 Ene= 1.32174958188836E-01
 Spin= Alpha
 Occup= 0.046136
  1       0.000000000000
  2       0.000000000000
  3       0.000000000000
  4       0.000000000000
  5      -0.000000000000
  6      -0.000000000000
  7       0.000000000000
  8       0.141617941232
  9      -0.299298114011
 10       0.019040305126
 11       0.241339474756
 12      -0.510051544334
 13       0.032447705414
 14       0.093371732951
 15      -0.197333638176
 16       0.012553679782
 17       0.010244181016
 18      -0.021650251593
 19       0.001377313712
 20      -0.000000000000
 21      -0.000000000000
 22      -0.000000000000
 23      -0.000000000000
 24       0.000000000000
 25      -0.000000000000
 26      -0.000000000000
 27      -0.000000000000
 28      -0.000000000000
 29       0.000000000000
 30      -0.000000000000
 31      -0.000000000000
 32      -0.000000000000
 33      -0.000000000000
 34       0.000000000000
 35       0.000209230990
 36       0.000628304987
 37      -0.001327871991
 38       0.000171669289
 39       0.000209320547
 40      -0.001864547618
 41       0.000466063479
 42       0.000285638653
 43       0.000857751471
 44      -0.001812788657
 45       0.000234360045
 46       0.000285760914
 47      -0.002545449257
 48       0.000636262075
 49      -0.000000000000
 50       0.000000000000
 51      -0.000000000000
 52      -0.000000000000
 53      -0.000000000000
 54      -0.000000000000
 55       0.000000000000
 56       0.000000000000
 57       0.000000000000
 Sym=     1a
 Ene= 2.01724275067450E-01
 Spin= Alpha
 Occup= 0.000000
  1      -0.000000000000
  2      -0.000000000000
  3      -0.000000000000
  4      -0.000000000000
  5      -0.000000000000
  6       0.000000000000
  7      -0.000000000000
  8       0.049205800523
  9      -0.103992496761
 10       0.006615640983
 11      -0.040480178433
 12       0.085551597167
 13      -0.005442495084
 14       0.379667806619
 15      -0.802397333863
 16       0.051045727835
 17      -0.645273251370
 18       1.363733051594
 19      -0.086755954007
 20      -0.000000000000
 21      -0.000000000000
 22      -0.000000000000
 23       0.000000000000
 24       0.000000000000
 25      -0.000000000000
 26       0.000000000000
 27       0.000000000000
 28      -0.000000000000
 29      -0.000000000000
 30      -0.000000000000
 31      -0.000000000000
 32      -0.000000000000
 33      -0.000000000000
 34       0.000000000000
 35      -0.000073603499
 36      -0.000221025792
 37       0.000467120211
 38      -0.000060390004
 39      -0.000073635003
 40       0.000655912530
 41      -0.000163952303
 42       0.000052766800
 43       0.000158454748
 44      -0.000334881348
 45       0.000043293965
 46       0.000052789386
 47      -0.000470227722
 48       0.000117538413
 49       0.000000000000
 50      -0.000000000000
 51       0.000000000000
 52       0.000000000000
 53       0.000000000000
 54       0.000000000000
 55      -0.000000000000
 56       0.000000000000
 57      -0.000000000000
 Sym=     1a
 Ene= 2.30250719579334E-01
 Spin= Alpha
 Occup= 0.000000
  1       0.000000000000
  2      -0.000000000000
  3       0.000000000000
  4      -0.000000000000
  5       0.000000000000
  6      -0.000000000000
  7       0.000000000000
  8      -0.145879622084
  9      -0.071274150028
 10      -0.035348537180
 11       0.066139201699
 12       0.032314420049
 13       0.016026392151
 14      -0.890860739318
 15      -0.435258475999
 16      -0.215867189095
 17       1.346746441804
 18       0.657996000885
 19       0.326334247302
 20      -0.000000000000
 21       0.000000000000
 22       0.000000000000
 23       0.000000000000
 24      -0.000000000000
 25       0.000000000000
 26      -0.000000000000
 27      -0.000000000000
 28      -0.000000000000
 29       0.000000000000
 30      -0.000000000000
 31      -0.000000000000
 32       0.000000000000
 33      -0.000000000000
 34      -0.000000000000
 35       0.000111420844
 36       0.000176384015
 37       0.000115678181
 38       0.000032292018
 39       0.000160795333
 40      -0.000188880452
 41      -0.000797976588
 42       0.000084197700
 43       0.000133288601
 44       0.000087414854
 45       0.000024402199
 46       0.000121508658
 47      -0.000142731818
 48      -0.000603009196
 49       0.000000000000
 50      -0.000000000000
 51      -0.000000000000
 52      -0.000000000000
 53       0.000000000000
 54      -0.000000000000
 55      -0.000000000000
 56       0.000000000000
 57      -0.000000000000
 Sym=     1a
 Ene= 2.30250719579334E-01
 Spin= Alpha
 Occup= 0.000000
  1       0.000000000000
  2      -0.000000000000
  3       0.000000000000
  4      -0.000000000000
  5       0.000000000000
  6      -0.000000000000
  7       0.000000000000
  8       0.035991306068
  9       0.006718937621
 10      -0.162079824306
 11      -0.016317812025
 12      -0.003046245693
 13       0.073484082547
 14       0.219792463641
 15       0.041031349345
 16      -0.989792474417
 17      -0.332268226985
 18      -0.062028576740
 19       1.496305128527
 20      -0.000000000000
 21       0.000000000000
 22       0.000000000000
 23      -0.000000000000
 24       0.000000000000
 25       0.000000000000
 26      -0.000000000000
 27      -0.000000000000
 28      -0.000000000000
 29      -0.000000000000
 30      -0.000000000000
 31      -0.000000000000
 32       0.000000000000
 33      -0.000000000000
 34       0.000000000000
 35       0.000510885944
 36      -0.000098299013
 37       0.000101218988
 38       0.000434033847
 39       0.000502746952
 40       0.000089034150
 41       0.000162075154
 42       0.000386062607
 43      -0.000074281890
 44       0.000076488435
 45       0.000327987569
 46       0.000379912192
 47       0.000067280684
 48       0.000122475784
 49       0.000000000000
 50       0.000000000000
 51      -0.000000000000
 52       0.000000000000
 53       0.000000000000
 54      -0.000000000000
 55      -0.000000000000
 56       0.000000000000
 57       0.000000000000
 Sym=     1a
 Ene= 3.07935987707121E-01
 Spin= Alpha
 Occup= 0.000000
  1      -0.067811656511
  2       0.006078169727
  3      -0.141381483862
  4       0.108271432927
  5      -0.390745665466
  6       2.172917363643
  7      -2.095386852919
  8       0.000000000000
  9      -0.000000000000
 10      -0.000000000000
 11       0.000000000000
 12      -0.000000000000
 13       0.000000000000
 14      -0.000000000000
 15       0.000000000000
 16      -0.000000000000
 17       0.000000000000
 18      -0.000000000000
 19       0.000000000000
 20       0.000706717289
 21      -0.000060612335
 22       0.000128099289
 23       0.000781397184
 24       0.000952776625
 25      -0.005151578485
 26       0.000441830428
 27      -0.000933773028
 28      -0.005695953643
 29      -0.006945215058
 30       0.012426969800
 31      -0.001065811848
 32       0.002252507510
 33       0.013740146658
 34       0.016753695594
 35       0.000000000000
 36       0.000000000000
 37      -0.000000000000
 38       0.000000000000
 39       0.000000000000
 40      -0.000000000000
 41      -0.000000000000
 42      -0.000000000000
 43      -0.000000000000
 44       0.000000000000
 45      -0.000000000000
 46      -0.000000000000
 47       0.000000000000
 48       0.000000000000
 49      -0.000006974356
 50       0.000001109401
 51      -0.000002344629
 52      -0.000006637566
 53      -0.000008093346
 54      -0.000002229108
 55       0.000000557189
 56      -0.000002765174
 57       0.000013853646
 Sym=     1a
 Ene= 6.35024001491313E-01
 Spin= Alpha
 Occup= 0.000000
  1       0.000195590505
  2      -0.000856272543
  3       0.003308014014
  4      -0.009354133056
  5       0.032230733366
  6      -0.065781493322
  7       0.050914438522
  8       0.000000000000
  9      -0.000000000000
 10       0.000000000000
 11       0.000000000000
 12      -0.000000000000
 13      -0.000000000000
 14       0.000000000000
 15      -0.000000000000
 16       0.000000000000
 17      -0.000000000000
 18       0.000000000000
 19      -0.000000000000
 20       0.027546905381
 21      -0.002362588677
 22       0.004993140905
 23       0.030457828900
 24       0.037137972874
 25      -0.075056856083
 26       0.006437328472
 27      -0.013604775315
 28      -0.082988228576
 29      -0.101189569086
 30       0.535052184931
 31      -0.045889301044
 32       0.096983342197
 33       0.591591965620
 34       0.721342497637
 35       0.000000000000
 36      -0.000000000000
 37      -0.000000000000
 38      -0.000000000000
 39      -0.000000000000
 40      -0.000000000000
 41       0.000000000000
 42       0.000000000000
 43       0.000000000000
 44       0.000000000000
 45       0.000000000000
 46       0.000000000000
 47       0.000000000000
 48      -0.000000000000
 49      -0.001000258963
 50       0.000159109757
 51      -0.000336265658
 52      -0.000951956745
 53      -0.001160744053
 54      -0.000319697688
 55       0.000079911832
 56      -0.000396580048
 57       0.001986883703
 Sym=     1a
 Ene= 6.37424192240216E-01
 Spin= Alpha
 Occup= 0.000000
  1      -0.000000000000
  2       0.000000000000
  3      -0.000000000000
  4       0.000000000000
  5      -0.000000000000
  6       0.000000000000
  7      -0.000000000000
  8       0.000000000000
  9      -0.000000000000
 10      -0.000000000000
 11       0.000000000000
 12       0.000000000000
 13       0.000000000000
 14       0.000000000000
 15      -0.000000000000
 16      -0.000000000000
 17      -0.000000000000
 18       0.000000000000
 19       0.000000000000
 20      -0.003821615940
 21      -0.014245098674
 22       0.035567378958
 23       0.030010266818
 24      -0.027465745812
 25       0.010297446203
 26       0.038383798777
 27      -0.095837252391
 28      -0.080863465334
 29       0.074007185532
 30      -0.073722135516
 31      -0.274799747371
 32       0.686124187422
 33       0.578922893342
 34      -0.529836976434
 35      -0.000000000000
 36       0.000000000000
 37      -0.000000000000
 38      -0.000000000000
 39      -0.000000000000
 40       0.000000000000
 41       0.000000000000
 42      -0.000000000000
 43      -0.000000000000
 44       0.000000000000
 45      -0.000000000000
 46       0.000000000000
 47      -0.000000000000
 48      -0.000000000000
 49       0.000233740009
 50       0.000468691604
 51      -0.001173503322
 52      -0.000311224099
 53       0.000616448597
 54      -0.001043250904
 55       0.000475125616
 56       0.001689917022
 57       0.000242882731
 Sym=     1a
 Ene= 6.37424192240219E-01
 Spin= Alpha
 Occup= 0.000000
  1       0.000000000000
  2      -0.000000000000
  3       0.000000000000
  4      -0.000000000000
  5       0.000000000000
  6      -0.000000000000
  7       0.000000000000
  8       0.000000000000
  9       0.000000000000
 10      -0.000000000000
 11      -0.000000000000
 12      -0.000000000000
 13       0.000000000000
 14      -0.000000000000
 15       0.000000000000
 16      -0.000000000000
 17       0.000000000000
 18      -0.000000000000
 19      -0.000000000000
 20      -0.004039244733
 21      -0.019285738177
 22       0.035591602859
 23      -0.031195987092
 24       0.022568614010
 25       0.010883852797
 26       0.051965936524
 27      -0.095902524339
 28       0.084058420273
 29      -0.060811733121
 30      -0.077920375113
 31      -0.372037856691
 32       0.686591486521
 33      -0.601796419105
 34       0.435367249501
 35      -0.000000000000
 36       0.000000000000
 37      -0.000000000000
 38      -0.000000000000
 39      -0.000000000000
 40       0.000000000000
 41      -0.000000000000
 42      -0.000000000000
 43      -0.000000000000
 44       0.000000000000
 45       0.000000000000
 46       0.000000000000
 47      -0.000000000000
 48       0.000000000000
 49       0.000247050754
 50       0.000637068485
 51      -0.001173289276
 52       0.000649217637
 53      -0.000150665449
 54      -0.001203673868
 55       0.000098066182
 56      -0.001562561738
 57      -0.000411685946
 Sym=     1a
 Ene= 6.44660615579495E-01
 Spin= Alpha
 Occup= 0.000000
  1       0.000000000000
  2      -0.000000000000
  3       0.000000000000
  4      -0.000000000000
  5       0.000000000000
  6      -0.000000000000
  7       0.000000000000
  8       0.000000000000
  9       0.000000000000
 10      -0.000000000000
 11      -0.000000000000
 12      -0.000000000000
 13       0.000000000000
 14       0.000000000000
 15       0.000000000000
 16      -0.000000000000
 17      -0.000000000000
 18      -0.000000000000
 19       0.000000000000
 20      -0.000462091001
 21       0.051429538688
 22       0.024300807734
 23      -0.002358851396
 24       0.002281873549
 25       0.001200519937
 26      -0.133614778045
 27      -0.063133893762
 28       0.006128334295
 29      -0.005928344596
 30      -0.008748486480
 31       0.973684020828
 32       0.460072339509
 33      -0.044658691687
 34       0.043201317156
 35       0.000000000000
 36       0.000000000000
 37      -0.000000000000
 38       0.000000000000
 39       0.000000000000
 40       0.000000000000
 41      -0.000000000000
 42      -0.000000000000
 43       0.000000000000
 44       0.000000000000
 45      -0.000000000000
 46      -0.000000000000
 47      -0.000000000000
 48       0.000000000000
 49       0.000009163275
 50      -0.000559612188
 51      -0.000261788241
 52       0.000203144420
 53      -0.000155932650
 54       0.000401727579
 55       0.001607188008
 56      -0.000135175790
 57      -0.000015626564
 Sym=     1a
 Ene= 6.44660615579493E-01
 Spin= Alpha
 Occup= 0.000000
  1      -0.000000000000
  2      -0.000000000000
  3      -0.000000000000
  4      -0.000000000000
  5      -0.000000000000
  6       0.000000000000
  7      -0.000000000000
  8      -0.000000000000
  9       0.000000000000
 10       0.000000000000
 11      -0.000000000000
 12      -0.000000000000
 13       0.000000000000
 14      -0.000000000000
 15       0.000000000000
 16      -0.000000000000
 17       0.000000000000
 18      -0.000000000000
 19       0.000000000000
 20      -0.049179736839
 21       0.000913578409
 22      -0.003180371702
 23       0.018148515924
 24       0.022080462533
 25       0.127769756246
 26      -0.002373491567
 27       0.008262657412
 28      -0.047150139568
 29      -0.057365400814
 30      -0.931089897549
 31       0.017296221620
 32      -0.060212033501
 33       0.343594759122
 34       0.418035900953
 35       0.000000000000
 36      -0.000000000000
 37       0.000000000000
 38       0.000000000000
 39       0.000000000000
 40       0.000000000000
 41       0.000000000000
 42      -0.000000000000
 43       0.000000000000
 44      -0.000000000000
 45      -0.000000000000
 46       0.000000000000
 47      -0.000000000000
 48      -0.000000000000
 49       0.000975235268
 50      -0.000118261384
 51       0.000263508225
 52       0.000555028956
 53       0.000680552837
 54      -0.000004388941
 55      -0.000014947523
 56      -0.000230711141
 57       0.001162383209
 Sym=     1a
 Ene= 9.27749625306277E-01
 Spin= Alpha
 Occup= 0.000000
  1       0.000000000000
  2       0.000000000000
  3      -0.000000000000
  4       0.000000000000
  5      -0.000000000000
  6       0.000000000000
  7      -0.000000000000
  8       0.086767392473
  9      -0.183375896435
 10       0.011665736794
 11       0.566934208557
 12      -1.198169793412
 13       0.076223395310
 14      -1.052246535204
 15       2.223838312584
 16      -0.141472859471
 17       0.462919171222
 18      -0.978342388549
 19       0.062238740320
 20       0.000000000000
 21      -0.000000000000
 22       0.000000000000
 23       0.000000000000
 24      -0.000000000000
 25      -0.000000000000
 26       0.000000000000
 27      -0.000000000000
 28      -0.000000000000
 29       0.000000000000
 30       0.000000000000
 31       0.000000000000
 32      -0.000000000000
 33       0.000000000000
 34      -0.000000000000
 35      -0.000390279093
 36      -0.001171978874
 37       0.002476882968
 38      -0.000320215157
 39      -0.000390446143
 40       0.003477945367
 41      -0.000869349381
 42       0.000969673214
 43       0.002911856004
 44      -0.006153973168
 45       0.000795594912
 46       0.000970088260
 47      -0.008641176329
 48       0.002159953795
 49       0.000000000000
 50      -0.000000000000
 51       0.000000000000
 52       0.000000000000
 53       0.000000000000
 54       0.000000000000
 55       0.000000000000
 56       0.000000000000
 57      -0.000000000000
 Sym=     1a
 Ene= 9.57983681977469E-01
 Spin= Alpha
 Occup= 0.000000
  1      -0.000000000000
  2      -0.000000000000
  3       0.000000000000
  4      -0.000000000000
  5       0.000000000000
  6      -0.000000000000
  7       0.000000000000
  8      -0.003274377601
  9       0.014431121681
 10       0.251199657004
 11      -0.017592789505
 12       0.077536471647
 13       1.349661898302
 14       0.031154814092
 15      -0.137308205663
 16      -2.390096551615
 17      -0.013549360606
 18       0.059715920217
 19       1.039463113642
 20       0.000000000000
 21       0.000000000000
 22      -0.000000000000
 23      -0.000000000000
 24       0.000000000000
 25       0.000000000000
 26      -0.000000000000
 27       0.000000000000
 28      -0.000000000000
 29       0.000000000000
 30       0.000000000000
 31       0.000000000000
 32      -0.000000000000
 33       0.000000000000
 34      -0.000000000000
 35      -0.002361882987
 36       0.000252898994
 37      -0.000563312730
 38      -0.001943044535
 39      -0.002376368466
 40      -0.000199393347
 41       0.000099728157
 42       0.004741558983
 43      -0.000507703178
 44       0.001130869120
 45       0.003900726802
 46       0.004770639065
 47       0.000400288804
 48      -0.000200207606
 49       0.000000000000
 50      -0.000000000000
 51      -0.000000000000
 52      -0.000000000000
 53      -0.000000000000
 54       0.000000000000
 55       0.000000000000
 56      -0.000000000000
 57       0.000000000000
 Sym=     1a
 Ene= 9.57983681977474E-01
 Spin= Alpha
 Occup= 0.000000
  1      -0.000000000000
  2      -0.000000000000
  3      -0.000000000000
  4      -0.000000000000
  5       0.000000000000
  6       0.000000000000
  7      -0.000000000000
  8       0.227518054088
  9       0.107449967589
 10      -0.003207184064
 11       1.222423837839
 12       0.577314192855
 13      -0.017231767682
 14      -2.164772527925
 15      -1.022357275757
 16       0.030515485817
 17       0.941468741371
 18       0.444627509460
 19      -0.013271314031
 20      -0.000000000000
 21       0.000000000000
 22       0.000000000000
 23      -0.000000000000
 24      -0.000000000000
 25      -0.000000000000
 26       0.000000000000
 27      -0.000000000000
 28      -0.000000000000
 29       0.000000000000
 30      -0.000000000000
 31       0.000000000000
 32      -0.000000000000
 33      -0.000000000000
 34       0.000000000000
 35       0.000030155270
 36      -0.000876400815
 37      -0.000405963922
 38       0.000300094580
 39      -0.000195429750
 40       0.000921957151
 41       0.003676951723
 42      -0.000060537712
 43       0.001759403907
 44       0.000814986133
 45      -0.000602449892
 46       0.000392331751
 47      -0.001850859773
 48      -0.007381603394
 49       0.000000000000
 50      -0.000000000000
 51      -0.000000000000
 52      -0.000000000000
 53       0.000000000000
 54      -0.000000000000
 55       0.000000000000
 56      -0.000000000000
 57       0.000000000000
 Sym=     1a
 Ene= 1.72019261413973E+00
 Spin= Alpha
 Occup= 0.000000
  1      -0.118711244236
  2      -0.085583266155
  3       0.053953721089
  4      -0.857845514574
  5       3.554331026198
  6      -3.951543078230
  7       1.478335046015
  8       0.000000000000
  9      -0.000000000000
 10       0.000000000000
 11       0.000000000000
 12      -0.000000000000
 13      -0.000000000000
 14      -0.000000000000
 15       0.000000000000
 16       0.000000000000
 17       0.000000000000
 18      -0.000000000000
 19      -0.000000000000
 20      -0.003176627609
 21       0.000272446735
 22      -0.000575794233
 23      -0.003512306695
 24      -0.004282641130
 25       0.004435168090
 26      -0.000380386754
 27       0.000803916771
 28       0.004903839069
 29       0.005979370457
 30      -0.005117131604
 31       0.000438876056
 32      -0.000927529201
 33      -0.005657866707
 34      -0.006898774728
 35       0.000000000000
 36       0.000000000000
 37       0.000000000000
 38       0.000000000000
 39       0.000000000000
 40       0.000000000000
 41      -0.000000000000
 42      -0.000000000000
 43      -0.000000000000
 44       0.000000000000
 45      -0.000000000000
 46      -0.000000000000
 47       0.000000000000
 48       0.000000000000
 49       0.000000305154
 50      -0.000000048540
 51       0.000000102586
 52       0.000000290419
 53       0.000000354115
 54       0.000000097532
 55      -0.000000024379
 56       0.000000120987
 57      -0.000000606150
 Sym=     1a
 Ene= 1.89968409870150E+00
 Spin= Alpha
 Occup= 0.000000
  1       0.000000000000
  2       0.000000000000
  3      -0.000000000000
  4       0.000000000000
  5      -0.000000000000
  6       0.000000000000
  7      -0.000000000000
  8      -0.003362321455
  9       0.007105995620
 10      -0.000452058728
 11       0.013684620216
 12      -0.028921342775
 13       0.001839875246
 14      -0.014484076126
 15       0.030610928460
 16      -0.001947360811
 17       0.005927007474
 18      -0.012526252983
 19       0.000796876651
 20      -0.000000000000
 21      -0.000000000000
 22       0.000000000000
 23       0.000000000000
 24       0.000000000000
 25       0.000000000000
 26       0.000000000000
 27      -0.000000000000
 28       0.000000000000
 29       0.000000000000
 30      -0.000000000000
 31      -0.000000000000
 32       0.000000000000
 33      -0.000000000000
 34      -0.000000000000
 35       0.010020247098
 36       0.030090051215
 37      -0.063592900029
 38       0.008221385813
 39       0.010024536033
 40      -0.089294744623
 41       0.022320169748
 42      -0.090610509722
 43      -0.272096571219
 44       0.575054190776
 45      -0.074343871148
 46      -0.090649293455
 47       0.807469341485
 48      -0.201835537403
 49      -0.000000000000
 50      -0.000000000000
 51      -0.000000000000
 52       0.000000000000
 53       0.000000000000
 54       0.000000000000
 55      -0.000000000000
 56       0.000000000000