[Molden Format]
[Title]
 Molden file created by orca_2mkl for BaseName=mol

[Atoms] AU
Mn   1  25          0.0000000000         0.0000000000         0.0000000000 
[GTO]
  1 0
s  11 1.0 
  4289357.6441000002         0.5604031684
   636361.0028500000         1.0557367356
   143637.2756900000         1.8366769857
    40406.3454320000         3.0170249703
    13104.3634170000         4.7313147861
     4705.0664255000         7.0906735454
     1825.7125432000        10.0249531708
      753.3381622900        12.9222607414
      326.4725328500        14.1267087806
      147.1030067000        11.3363752732
       67.9872268690         5.0192772198
s   4 1.0 
     1300.7266717000         1.1798190366
      402.7202754400         4.7900539125
      154.3897134800        10.6010303335
       66.4433846130        10.4682492699
s   1 1.0 
       30.9753160060         9.3577599766
s   1 1.0 
       14.2229808900         5.2197903736
s   1 1.0 
        6.7598265074         2.9878703912
s   1 1.0 
        2.9087083287         1.5873957860
s   1 1.0 
        1.3966507792         0.9156425438
s   1 1.0 
        0.6179262409         0.4967210570
s   1 1.0 
        0.1343948372         0.1581965585
s   1 1.0 
        0.0651950538         0.0919540958
s   1 1.0 
        0.0294157136         0.0506226218
p   9 1.0 
     6483.2629658000        17.0034418008
     1556.7134859000        24.4572136641
      509.7392546000        33.1142316983
      195.2840808900        40.2999796622
       82.5425475250        42.0135851068
       37.2120767310        34.3243680134
       17.4258044620        19.5118697098
        8.3691376962         6.0344510905
        3.9409000444         0.6201858919
p   5 1.0 
       57.2027410100        -1.0602873951
       20.0909359470        -1.3802934879
        3.9357553763         1.8151208121
        1.8181984012         1.4434444727
        0.8188153528         0.4305332873
p   1 1.0 
        0.3403835919         0.3705961122
p   1 1.0 
        0.1500000000         0.1330620352
p   1 1.0 
        0.0630000000         0.0449899774
p   1 1.0 
        0.0270000000         0.0156007254
d   6 1.0 
      200.4025453500        45.4113835379
       59.8982257730        46.7227456339
       22.8105701670        39.0499259242
        9.5874142097        26.1885149589
        4.2933710910        13.7341849738
        1.9537618373         5.0260459932
d   1 1.0 
        0.8737887360         2.2512895576
d   1 1.0 
        0.3759774890         0.5146397281
d   1 1.0 
        0.1481154759         0.1008140009
d   1 1.0 
        0.0600000000         0.0207364673
f   1 1.0 
        4.3530000000       156.0538833181
f   1 1.0 
        1.3260000000        10.7577886647
f   1 1.0 
        0.4080000000         0.7585521544
g   1 1.0 
        1.7550000000        30.9194336047

[5D]
[9G]
[MO]
 Sym=     1a
 Ene= -2.40361925666797E+02
 Spin= Alpha
 Occup= 1.000000
  1      -0.951999218728
  2       0.000697529643
  3      -0.070908935453
  4       0.000111940495
  5      -0.001601213689
  6       0.000769132249
  7      -0.000351640481
  8       0.000140227248
  9      -0.000052109412
 10       0.000041350689
 11      -0.000012808450
 12      -0.000000000000
 13       0.000000000000
 14       0.000000000000
 15       0.000000000000
 16      -0.000000000000
 17       0.000000000000
 18      -0.000000000000
 19       0.000000000000
 20       0.000000000000
 21       0.000000000000
 22      -0.000000000000
 23      -0.000000000000
 24      -0.000000000000
 25      -0.000000000000
 26       0.000000000000
 27       0.000000000000
 28       0.000000000000
 29      -0.000000000000
 30      -0.000002609164
 31      -0.000000000000
 32       0.000000000000
 33       0.000000000000
 34       0.000000000000
 35       0.000002727560
 36       0.000000000000
 37       0.000000000000
 38      -0.000000000000
 39       0.000000000000
 40      -0.000001908592
 41      -0.000000000000
 42      -0.000000000000
 43       0.000000000000
 44       0.000000000000
 45       0.000000941835
 46       0.000000000000
 47      -0.000000000000
 48      -0.000000000000
 49      -0.000000000000
 50      -0.000000330106
 51      -0.000000000000
 52       0.000000000000
 53       0.000000000000
 54       0.000000000000
 55       0.000000000000
 56       0.000000000000
 57      -0.000000000000
 58      -0.000000000000
 59      -0.000000000000
 60       0.000000000000
 61      -0.000000000000
 62      -0.000000000000
 63      -0.000000000000
 64       0.000000000000
 65       0.000000000000
 66       0.000000000000
 67      -0.000000000000
 68      -0.000000000000
 69       0.000000000000
 70      -0.000000000000
 71      -0.000000000000
 72      -0.000000000000
 73       0.000000000000
 74       0.000000000000
 75      -0.000000000000
 76      -0.000000008999
 77       0.000000000000
 78       0.000000000000
 79       0.000000000000
 80       0.000000000000
 81       0.000000000000
 82       0.000000000000
 83      -0.000000049887
 84       0.000000000000
 Sym=     1a
 Ene= -2.89633878163366E+01
 Spin= Alpha
 Occup= 1.000000
  1       0.289778609132
  2       0.177624577275
  3      -0.047323175804
  4      -0.521018049206
  5      -0.502219890513
  6      -0.088666268830
  7       0.003556183276
  8      -0.002792829684
  9       0.000582657701
 10      -0.000474199166
 11       0.000146824335
 12       0.000000000000
 13       0.000000000000
 14      -0.000000000000
 15       0.000000000000
 16       0.000000000000
 17      -0.000000000000
 18       0.000000000000
 19       0.000000000000
 20      -0.000000000000
 21      -0.000000000000
 22       0.000000000000
 23       0.000000000000
 24       0.000000000000
 25      -0.000000000000
 26      -0.000000000000
 27      -0.000000000000
 28      -0.000000000000
 29       0.000000000000
 30      -0.000866045803
 31       0.000000000000
 32      -0.000000000000
 33       0.000000000000
 34      -0.000000000000
 35       0.000539440768
 36      -0.000000000000
 37       0.000000000000
 38      -0.000000000000
 39      -0.000000000000
 40      -0.000358059206
 41      -0.000000000000
 42      -0.000000000000
 43       0.000000000000
 44      -0.000000000000
 45       0.000175520737
 46       0.000000000000
 47       0.000000000000
 48      -0.000000000000
 49      -0.000000000000
 50      -0.000061503341
 51       0.000000000000
 52      -0.000000000000
 53       0.000000000000
 54      -0.000000000000
 55      -0.000000000000
 56      -0.000000000000
 57       0.000000000000
 58       0.000000000000
 59      -0.000000000000
 60      -0.000000000000
 61       0.000000000000
 62       0.000000000000
 63       0.000000000000
 64      -0.000000000000
 65      -0.000000000000
 66      -0.000000000000
 67       0.000000000000
 68      -0.000000000000
 69      -0.000000000000
 70      -0.000000000000
 71       0.000000000000
 72       0.000000000000
 73       0.000000000000
 74      -0.000000000000
 75       0.000000000000
 76       0.000008213701
 77       0.000000000000
 78       0.000000000000
 79       0.000000000000
 80      -0.000000000000
 81       0.000000000000
 82       0.000000000000
 83       0.000048847880
 84       0.000000000000
 Sym=     1a
 Ene= -2.46863466250797E+01
 Spin= Alpha
 Occup= 1.000000
  1       0.000000000000
  2      -0.000000000000
  3       0.000000000000
  4       0.000000000000
  5      -0.000000000000
  6       0.000000000000
  7       0.000000000000
  8      -0.000000000000
  9      -0.000000000000
 10       0.000000000000
 11       0.000000000000
 12      -0.000000000000
 13       0.000000000000
 14       0.997388050426
 15      -0.000000000000
 16       0.000000000000
 17       0.007627348896
 18       0.000000000000
 19      -0.000000000000
 20      -0.001877518367
 21      -0.000000000000
 22       0.000000000000
 23       0.001532024107
 24       0.000000000000
 25      -0.000000000000
 26      -0.000787796436
 27      -0.000000000000
 28       0.000000000000
 29       0.000257851058
 30      -0.000000000000
 31       0.000000000000
 32      -0.000000000000
 33      -0.000000000000
 34      -0.000000000000
 35       0.000000000000
 36       0.000000000000
 37       0.000000000000
 38       0.000000000000
 39       0.000000000000
 40      -0.000000000000
 41       0.000000000000
 42      -0.000000000000
 43      -0.000000000000
 44      -0.000000000000
 45      -0.000000000000
 46      -0.000000000000
 47       0.000000000000
 48       0.000000000000
 49      -0.000000000000
 50       0.000000000000
 51      -0.000000000000
 52      -0.000000000000
 53      -0.000000000000
 54      -0.000000000000
 55       0.000319647261
 56       0.000000000000
 57       0.000000000000
 58       0.000000000000
 59       0.000000000000
 60       0.000000000000
 61      -0.000000000000
 62      -0.000064404374
 63       0.000000000000
 64      -0.000000000000
 65      -0.000000000000
 66       0.000000000000
 67      -0.000000000000
 68       0.000000000000
 69       0.000023682536
 70      -0.000000000000
 71      -0.000000000000
 72       0.000000000000
 73      -0.000000000000
 74      -0.000000000000
 75       0.000000000000
 76      -0.000000000000
 77      -0.000000000000
 78       0.000000000000
 79      -0.000000000000
 80       0.000000000000
 81      -0.000000000000
 82      -0.000000000000
 83      -0.000000000000
 84       0.000000000000
 Sym=     1a
 Ene= -2.46607982617839E+01
 Spin= Alpha
 Occup= 1.000000
  1       0.000000000000
  2      -0.000000000000
  3       0.000000000000
  4       0.000000000000
  5      -0.000000000000
  6       0.000000000000
  7       0.000000000000
  8      -0.000000000000
  9      -0.000000000000
 10       0.000000000000
 11       0.000000000000
 12      -0.997615366412
 13       0.000000000000
 14       0.000000000000
 15      -0.006918504431
 16       0.000000000000
 17       0.000000000000
 18       0.001358328820
 19      -0.000000000000
 20      -0.000000000000
 21      -0.001102497894
 22       0.000000000000
 23      -0.000000000000
 24       0.000549389936
 25      -0.000000000000
 26       0.000000000000
 27      -0.000178924145
 28       0.000000000000
 29       0.000000000000
 30      -0.000000000000
 31      -0.000000000000
 32      -0.000000000000
 33      -0.000000000000
 34       0.000000000000
 35      -0.000000000000
 36      -0.000000000000
 37       0.000000000000
 38       0.000000000000
 39      -0.000000000000
 40       0.000000000000
 41      -0.000000000000
 42      -0.000000000000
 43      -0.000000000000
 44      -0.000000000000
 45       0.000000000000
 46       0.000000000000
 47       0.000000000000
 48       0.000000000000
 49       0.000000000000
 50      -0.000000000000
 51       0.000000000000
 52      -0.000000000000
 53      -0.000000000000
 54       0.000000000000
 55      -0.000000000000
 56      -0.000307724688
 57       0.000000000000
 58      -0.000000000000
 59      -0.000000000000
 60       0.000178572714
 61       0.000000000000
 62       0.000000000000
 63       0.000058862576
 64       0.000000000000
 65       0.000000000000
 66       0.000000000000
 67      -0.000023982729
 68      -0.000000000000
 69      -0.000000000000
 70      -0.000021893497
 71      -0.000000000000
 72      -0.000000000000
 73       0.000000000000
 74       0.000009495188
 75      -0.000000000000
 76      -0.000000000000
 77       0.000000000000
 78      -0.000000000000
 79       0.000000000000
 80      -0.000000000000
 81      -0.000000000000
 82       0.000000000000
 83      -0.000000000000
 84       0.000000000000
 Sym=     1a
 Ene= -2.46607982617839E+01
 Spin= Alpha
 Occup= 1.000000
  1      -0.000000000000
  2       0.000000000000
  3       0.000000000000
  4      -0.000000000000
  5       0.000000000000
  6      -0.000000000000
  7      -0.000000000000
  8       0.000000000000
  9       0.000000000000
 10      -0.000000000000
 11      -0.000000000000
 12      -0.000000000000
 13       0.997615366412
 14       0.000000000000
 15      -0.000000000000
 16       0.006918504431
 17       0.000000000000
 18       0.000000000000
 19      -0.001358328820
 20      -0.000000000000
 21      -0.000000000000
 22       0.001102497894
 23       0.000000000000
 24       0.000000000000
 25      -0.000549389936
 26      -0.000000000000
 27      -0.000000000000
 28       0.000178924145
 29       0.000000000000
 30       0.000000000000
 31      -0.000000000000
 32      -0.000000000000
 33      -0.000000000000
 34      -0.000000000000
 35      -0.000000000000
 36       0.000000000000
 37      -0.000000000000
 38       0.000000000000
 39       0.000000000000
 40       0.000000000000
 41      -0.000000000000
 42      -0.000000000000
 43      -0.000000000000
 44      -0.000000000000
 45      -0.000000000000
 46       0.000000000000
 47      -0.000000000000
 48       0.000000000000
 49      -0.000000000000
 50       0.000000000000
 51      -0.000000000000
 52      -0.000000000000
 53      -0.000000000000
 54      -0.000000000000
 55       0.000000000000
 56      -0.000000000000
 57       0.000307724688
 58       0.000000000000
 59       0.000000000000
 60      -0.000000000000
 61       0.000178572714
 62      -0.000000000000
 63       0.000000000000
 64      -0.000058862576
 65       0.000000000000
 66       0.000000000000
 67       0.000000000000
 68      -0.000023982729
 69      -0.000000000000
 70      -0.000000000000
 71       0.000021893497
 72      -0.000000000000
 73       0.000000000000
 74      -0.000000000000
 75       0.000009495188
 76       0.000000000000
 77      -0.000000000000
 78       0.000000000000
 79      -0.000000000000
 80       0.000000000000
 81      -0.000000000000
 82       0.000000000000
 83       0.000000000000
 84       0.000000000000
 Sym=     1a
 Ene= -3.78378790264824E+00
 Spin= Alpha
 Occup= 1.000000
  1      -0.106028547518
  2      -0.076537844319
  3       0.018489716178
  4       0.306271395052
  5       0.452047465622
  6      -0.138570343355
  7      -0.709545836557
  8      -0.402509037856
  9      -0.024126566111
 10       0.012179471782
 11      -0.003257696759
 12      -0.000000000000
 13      -0.000000000000
 14       0.000000000000
 15      -0.000000000000
 16      -0.000000000000
 17       0.000000000000
 18      -0.000000000000
 19      -0.000000000000
 20       0.000000000000
 21       0.000000000000
 22      -0.000000000000
 23      -0.000000000000
 24      -0.000000000000
 25       0.000000000000
 26       0.000000000000
 27       0.000000000000
 28       0.000000000000
 29      -0.000000000000
 30      -0.009157329821
 31       0.000000000000
 32      -0.000000000000
 33       0.000000000000
 34      -0.000000000000
 35      -0.006116992022
 36      -0.000000000000
 37      -0.000000000000
 38      -0.000000000000
 39      -0.000000000000
 40       0.001216325629
 41      -0.000000000000
 42       0.000000000000
 43       0.000000000000
 44      -0.000000000000
 45      -0.000772167974
 46       0.000000000000
 47      -0.000000000000
 48      -0.000000000000
 49       0.000000000000
 50       0.000292183169
 51       0.000000000000
 52      -0.000000000000
 53       0.000000000000
 54      -0.000000000000
 55      -0.000000000000
 56       0.000000000000
 57      -0.000000000000
 58       0.000000000000
 59       0.000000000000
 60       0.000000000000
 61       0.000000000000
 62       0.000000000000
 63      -0.000000000000
 64       0.000000000000
 65       0.000000000000
 66       0.000000000000
 67      -0.000000000000
 68       0.000000000000
 69       0.000000000000
 70       0.000000000000
 71       0.000000000000
 72      -0.000000000000
 73       0.000000000000
 74       0.000000000000
 75       0.000000000000
 76       0.000283973613
 77       0.000000000000
 78       0.000000000000
 79       0.000000000000
 80      -0.000000000000
 81       0.000000000000
 82      -0.000000000000
 83       0.001841871555
 84       0.000000000000
 Sym=     1a
 Ene= -2.53423537212117E+00
 Spin= Alpha
 Occup= 1.000000
  1       0.000000000000
  2      -0.000000000000
  3       0.000000000000
  4       0.000000000000
  5      -0.000000000000
  6       0.000000000000
  7      -0.000000000000
  8      -0.000000000000
  9      -0.000000000000
 10       0.000000000000
 11       0.000000000000
 12       0.000000000000
 13       0.000000000000
 14      -0.365316894184
 15       0.000000000000
 16       0.000000000000
 17       1.003404471347
 18      -0.000000000000
 19       0.000000000000
 20       0.097988079109
 21      -0.000000000000
 22      -0.000000000000
 23      -0.002208178725
 24      -0.000000000000
 25       0.000000000000
 26       0.004327514704
 27       0.000000000000
 28      -0.000000000000
 29      -0.001137916120
 30      -0.000000000000
 31       0.000000000000
 32       0.000000000000
 33       0.000000000000
 34       0.000000000000
 35       0.000000000000
 36      -0.000000000000
 37      -0.000000000000
 38      -0.000000000000
 39      -0.000000000000
 40      -0.000000000000
 41       0.000000000000
 42       0.000000000000
 43       0.000000000000
 44       0.000000000000
 45       0.000000000000
 46      -0.000000000000
 47      -0.000000000000
 48      -0.000000000000
 49      -0.000000000000
 50      -0.000000000000
 51       0.000000000000
 52       0.000000000000
 53       0.000000000000
 54      -0.000000000000
 55       0.001784007986
 56       0.000000000000
 57       0.000000000000
 58       0.000000000000
 59      -0.000000000000
 60       0.000000000000
 61      -0.000000000000
 62       0.004135593931
 63       0.000000000000
 64       0.000000000000
 65      -0.000000000000
 66      -0.000000000000
 67       0.000000000000
 68       0.000000000000
 69       0.000685905459
 70      -0.000000000000
 71       0.000000000000
 72      -0.000000000000
 73       0.000000000000
 74       0.000000000000
 75      -0.000000000000
 76      -0.000000000000
 77       0.000000000000
 78      -0.000000000000
 79      -0.000000000000
 80       0.000000000000
 81      -0.000000000000
 82      -0.000000000000
 83      -0.000000000000
 84       0.000000000000
 Sym=     1a
 Ene= -2.47133954792929E+00
 Spin= Alpha
 Occup= 1.000000
  1      -0.000000000000
  2       0.000000000000
  3      -0.000000000000
  4      -0.000000000000
  5       0.000000000000
  6      -0.000000000000
  7       0.000000000000
  8       0.000000000000
  9      -0.000000000000
 10      -0.000000000000
 11      -0.000000000000
 12      -0.364193501808
 13      -0.000000000000
 14      -0.000000000000
 15       1.000827952640
 16      -0.000000000000
 17       0.000000000000
 18       0.101343984841
 19       0.000000000000
 20       0.000000000000
 21      -0.001656512200
 22       0.000000000000
 23      -0.000000000000
 24       0.004420557966
 25      -0.000000000000
 26       0.000000000000
 27      -0.001129579025
 28       0.000000000000
 29       0.000000000000
 30       0.000000000000
 31      -0.000000000000
 32       0.000000000000
 33      -0.000000000000
 34       0.000000000000
 35      -0.000000000000
 36      -0.000000000000
 37       0.000000000000
 38       0.000000000000
 39       0.000000000000
 40       0.000000000000
 41       0.000000000000
 42      -0.000000000000
 43      -0.000000000000
 44       0.000000000000
 45      -0.000000000000
 46       0.000000000000
 47       0.000000000000
 48       0.000000000000
 49      -0.000000000000
 50       0.000000000000
 51      -0.000000000000
 52      -0.000000000000
 53      -0.000000000000
 54      -0.000000000000
 55       0.000000000000
 56       0.001745049401
 57      -0.000000000000
 58       0.000000000000
 59       0.000000000000
 60      -0.001077128460
 61      -0.000000000000
 62      -0.000000000000
 63       0.004078504970
 64       0.000000000000
 65      -0.000000000000
 66      -0.000000000000
 67      -0.002523994157
 68       0.000000000000
 69      -0.000000000000
 70       0.000649978059
 71       0.000000000000
 72       0.000000000000
 73      -0.000000000000
 74      -0.000223682896
 75      -0.000000000000
 76       0.000000000000
 77       0.000000000000
 78       0.000000000000
 79      -0.000000000000
 80       0.000000000000
 81      -0.000000000000
 82      -0.000000000000
 83      -0.000000000000
 84       0.000000000000
 Sym=     1a
 Ene= -2.47133954792925E+00
 Spin= Alpha
 Occup= 1.000000
  1       0.000000000000
  2      -0.000000000000
  3      -0.000000000000
  4      -0.000000000000
  5       0.000000000000
  6      -0.000000000000
  7      -0.000000000000
  8       0.000000000000
  9      -0.000000000000
 10      -0.000000000000
 11      -0.000000000000
 12      -0.000000000000
 13      -0.364193501808
 14       0.000000000000
 15      -0.000000000000
 16       1.000827952640
 17       0.000000000000
 18       0.000000000000
 19       0.101343984841
 20       0.000000000000
 21      -0.000000000000
 22      -0.001656512200
 23       0.000000000000
 24      -0.000000000000
 25       0.004420557966
 26      -0.000000000000
 27       0.000000000000
 28      -0.001129579025
 29      -0.000000000000
 30       0.000000000000
 31       0.000000000000
 32       0.000000000000
 33       0.000000000000
 34      -0.000000000000
 35      -0.000000000000
 36      -0.000000000000
 37       0.000000000000
 38       0.000000000000
 39       0.000000000000
 40       0.000000000000
 41       0.000000000000
 42       0.000000000000
 43      -0.000000000000
 44       0.000000000000
 45      -0.000000000000
 46      -0.000000000000
 47      -0.000000000000
 48       0.000000000000
 49      -0.000000000000
 50       0.000000000000
 51       0.000000000000
 52       0.000000000000
 53       0.000000000000
 54       0.000000000000
 55       0.000000000000
 56       0.000000000000
 57       0.001745049401
 58       0.000000000000
 59      -0.000000000000
 60       0.000000000000
 61       0.001077128460
 62      -0.000000000000
 63      -0.000000000000
 64       0.004078504970
 65      -0.000000000000
 66      -0.000000000000
 67      -0.000000000000
 68       0.002523994157
 69       0.000000000000
 70       0.000000000000
 71       0.000649978059
 72       0.000000000000
 73      -0.000000000000
 74       0.000000000000
 75       0.000223682896
 76       0.000000000000
 77       0.000000000000
 78      -0.000000000000
 79      -0.000000000000
 80       0.000000000000
 81       0.000000000000
 82      -0.000000000000
 83       0.000000000000
 84       0.000000000000
 Sym=     1a
 Ene= -4.47548944661548E-01
 Spin= Alpha
 Occup= 1.000000
  1       0.001770880154
  2       0.001295452312
  3      -0.000274091123
  4      -0.005576174576
  5      -0.007849564141
  6       0.002505565892
  7       0.016614654397
  8       0.007560039766
  9      -0.014668531428
 10      -0.002049908015
 11      -0.001265842437
 12      -0.000000000000
 13      -0.000000000000
 14       0.000000000000
 15      -0.000000000000
 16      -0.000000000000
 17       0.000000000000
 18      -0.000000000000
 19      -0.000000000000
 20       0.000000000000
 21       0.000000000000
 22      -0.000000000000
 23       0.000000000000
 24      -0.000000000000
 25       0.000000000000
 26       0.000000000000
 27      -0.000000000000
 28      -0.000000000000
 29      -0.000000000000
 30      -0.565715102131
 31      -0.000000000000
 32       0.000000000000
 33      -0.000000000000
 34      -0.000000000000
 35      -0.325541499731
 36       0.000000000000
 37      -0.000000000000
 38      -0.000000000000
 39       0.000000000000
 40      -0.260920501288
 41      -0.000000000000
 42       0.000000000000
 43      -0.000000000000
 44      -0.000000000000
 45      -0.123254062681
 46       0.000000000000
 47      -0.000000000000
 48      -0.000000000000
 49      -0.000000000000
 50      -0.013613572240
 51      -0.000000000000
 52       0.000000000000
 53      -0.000000000000
 54       0.000000000000
 55       0.000000000000
 56      -0.000000000000
 57      -0.000000000000
 58       0.000000000000
 59      -0.000000000000
 60      -0.000000000000
 61      -0.000000000000
 62       0.000000000000
 63       0.000000000000
 64       0.000000000000
 65      -0.000000000000
 66       0.000000000000
 67      -0.000000000000
 68      -0.000000000000
 69       0.000000000000
 70      -0.000000000000
 71      -0.000000000000
 72      -0.000000000000
 73      -0.000000000000
 74       0.000000000000
 75       0.000000000000
 76      -0.003699252963
 77       0.000000000000
 78       0.000000000000
 79      -0.000000000000
 80       0.000000000000
 81       0.000000000000
 82      -0.000000000000
 83      -0.002065340360
 84       0.000000000000
 Sym=     1a
 Ene= -4.40052457800959E-01
 Spin= Alpha
 Occup= 1.000000
  1      -0.000000000000
  2       0.000000000000
  3      -0.000000000000
  4       0.000000000000
  5      -0.000000000000
  6       0.000000000000
  7      -0.000000000000
  8       0.000000000000
  9      -0.000000000000
 10       0.000000000000
 11      -0.000000000000
 12       0.000000000000
 13       0.000000000000
 14      -0.000000000000
 15       0.000000000000
 16      -0.000000000000
 17       0.000000000000
 18      -0.000000000000
 19      -0.000000000000
 20      -0.000000000000
 21       0.000000000000
 22       0.000000000000
 23       0.000000000000
 24      -0.000000000000
 25      -0.000000000000
 26      -0.000000000000
 27       0.000000000000
 28      -0.000000000000
 29       0.000000000000
 30       0.000000000000
 31       0.000000000000
 32      -0.564857682380
 33       0.000000000000
 34       0.000000000000
 35       0.000000000000
 36      -0.000000000000
 37      -0.325088853302
 38      -0.000000000000
 39      -0.000000000000
 40      -0.000000000000
 41       0.000000000000
 42      -0.261426632272
 43       0.000000000000
 44       0.000000000000
 45       0.000000000000
 46      -0.000000000000
 47      -0.124973400975
 48      -0.000000000000
 49       0.000000000000
 50       0.000000000000
 51       0.000000000000
 52      -0.014411422892
 53       0.000000000000
 54      -0.000000000000
 55      -0.000000000000
 56      -0.000000000000
 57      -0.000000000000
 58       0.000000000000
 59       0.000000000000
 60      -0.000000000000
 61      -0.000000000000
 62       0.000000000000
 63       0.000000000000
 64       0.000000000000
 65       0.000000000000
 66      -0.000000000000
 67       0.000000000000
 68      -0.000000000000
 69       0.000000000000
 70      -0.000000000000
 71      -0.000000000000
 72      -0.000000000000
 73       0.000000000000
 74      -0.000000000000
 75       0.000000000000
 76      -0.000000000000
 77      -0.000000000000
 78      -0.003533393655
 79       0.000000000000
 80      -0.000000000000
 81       0.000000000000
 82      -0.001250551716
 83      -0.000000000000
 84       0.000000000000
 Sym=     1a
 Ene= -4.40052457800951E-01
 Spin= Alpha
 Occup= 1.000000
  1      -0.000000000000
  2      -0.000000000000
  3       0.000000000000
  4      -0.000000000000
  5       0.000000000000
  6      -0.000000000000
  7       0.000000000000
  8      -0.000000000000
  9       0.000000000000
 10      -0.000000000000
 11       0.000000000000
 12      -0.000000000000
 13      -0.000000000000
 14      -0.000000000000
 15       0.000000000000
 16       0.000000000000
 17      -0.000000000000
 18      -0.000000000000
 19      -0.000000000000
 20       0.000000000000
 21       0.000000000000
 22       0.000000000000
 23      -0.000000000000
 24      -0.000000000000
 25      -0.000000000000
 26       0.000000000000
 27       0.000000000000
 28      -0.000000000000
 29      -0.000000000000
 30       0.000000000000
 31      -0.564857682380
 32       0.000000000000
 33       0.000000000000
 34      -0.000000000000
 35       0.000000000000
 36      -0.325088853302
 37      -0.000000000000
 38       0.000000000000
 39      -0.000000000000
 40      -0.000000000000
 41      -0.261426632272
 42      -0.000000000000
 43      -0.000000000000
 44       0.000000000000
 45       0.000000000000
 46      -0.124973400975
 47       0.000000000000
 48       0.000000000000
 49      -0.000000000000
 50      -0.000000000000
 51      -0.014411422892
 52      -0.000000000000
 53      -0.000000000000
 54      -0.000000000000
 55       0.000000000000
 56      -0.000000000000
 57       0.000000000000
 58       0.000000000000
 59      -0.000000000000
 60       0.000000000000
 61       0.000000000000
 62      -0.000000000000
 63       0.000000000000
 64      -0.000000000000
 65      -0.000000000000
 66       0.000000000000
 67       0.000000000000
 68      -0.000000000000
 69       0.000000000000
 70       0.000000000000
 71       0.000000000000
 72       0.000000000000
 73      -0.000000000000
 74      -0.000000000000
 75      -0.000000000000
 76       0.000000000000
 77      -0.003533393655
 78      -0.000000000000
 79       0.000000000000
 80       0.000000000000
 81       0.001250551716
 82       0.000000000000
 83      -0.000000000000
 84       0.000000000000
 Sym=     1a
 Ene= -4.15658420884040E-01
 Spin= Alpha
 Occup= 1.000000
  1      -0.000000000000
  2       0.000000000000
  3      -0.000000000000
  4       0.000000000000
  5       0.000000000000
  6      -0.000000000000
  7       0.000000000000
  8      -0.000000000000
  9       0.000000000000
 10      -0.000000000000
 11       0.000000000000
 12      -0.000000000000
 13      -0.000000000000
 14       0.000000000000
 15      -0.000000000000
 16       0.000000000000
 17       0.000000000000
 18       0.000000000000
 19      -0.000000000000
 20       0.000000000000
 21      -0.000000000000
 22       0.000000000000
 23      -0.000000000000
 24      -0.000000000000
 25       0.000000000000
 26      -0.000000000000
 27       0.000000000000
 28      -0.000000000000
 29       0.000000000000
 30      -0.000000000000
 31      -0.000000000000
 32      -0.000000000000
 33       0.560942157322
 34       0.000000000000
 35      -0.000000000000
 36       0.000000000000
 37       0.000000000000
 38       0.323011435723
 39      -0.000000000000
 40      -0.000000000000
 41      -0.000000000000