
                                 *****************
                                 * O   R   C   A *
                                 *****************

           --- An Ab Initio, DFT and Semiempirical electronic structure package ---

                  #######################################################
                  #                        -***-                        #
                  #  Department of molecular theory and spectroscopy    #
                  #              Directorship: Frank Neese              #
                  # Max Planck Institute for Chemical Energy Conversion #
                  #                  D-45470 Muelheim/Ruhr              #
                  #                       Germany                       #
                  #                                                     #
                  #                  All rights reserved                #
                  #                        -***-                        #
                  #######################################################


                         Program Version 4.0.1.2 - RELEASE -


 With contributions from (in alphabetic order):
   Daniel Aravena         : Magnetic Properties
   Michael Atanasov       : Ab Initio Ligand Field Theory
   Ute Becker             : Parallelization
   Martin Brehm           : Molecular dynamics
   Dmytro Bykov           : SCF Hessian
   Vijay G. Chilkuri      : MRCI spin determinant printing
   Dipayan Datta          : RHF DLPNO-CCSD density
   Achintya Kumar Dutta   : EOM-CC, STEOM-CC
   Dmitry Ganyushin       : Spin-Orbit,Spin-Spin,Magnetic field MRCI
   Yang Guo               : DLPNO-NEVPT2, CIM, IAO-localization
   Andreas Hansen         : Spin unrestricted coupled pair/coupled cluster methods
   Lee Huntington         : MR-EOM, pCC
   Robert Izsak           : Overlap fitted RIJCOSX, COSX-SCS-MP3, EOM
   Christian Kollmar      : KDIIS, OOCD, Brueckner-CCSD(T), CCSD density
   Simone Kossmann        : Meta GGA functionals, TD-DFT gradient, OOMP2, MP2 Hessian
   Martin Krupicka        : AUTO-CI
   Dagmar Lenk            : GEPOL surface
   Dimitrios Liakos       : Extrapolation schemes; parallel MDCI
   Dimitrios Manganas     : ROCIS; embedding schemes
   Dimitrios Pantazis     : SARC Basis sets
   Taras Petrenko         : DFT Hessian,TD-DFT gradient, ASA, ECA, R-Raman, ABS, FL, XAS/XES, NRVS
   Peter Pinski           : DLPNO-MP2
   Christoph Reimann      : Effective Core Potentials
   Marius Retegan         : Local ZFS, SOC
   Christoph Riplinger    : Optimizer, TS searches, QM/MM, DLPNO-CCSD(T), (RO)-DLPNO pert. Triples
   Tobias Risthaus        : Range-separated hybrids, TD-DFT gradient, RPA, STAB
   Michael Roemelt        : Restricted open shell CIS
   Masaaki Saitow         : Open-shell DLPNO
   Barbara Sandhoefer     : DKH picture change effects
   Kantharuban Sivalingam : CASSCF convergence, NEVPT2, FIC-MRCI
   Georgi Stoychev        : AutoAux
   Boris Wezisla          : Elementary symmetry handling
   Frank Wennmohs         : Technical directorship


 We gratefully acknowledge several colleagues who have allowed us to
 interface, adapt or use parts of their codes:
   Stefan Grimme, W. Hujo, H. Kruse,             : VdW corrections, initial TS optimization,
                  C. Bannwarth                     DFT functionals, gCP, sTDA/sTD-DF
   Ed Valeev                                     : LibInt (2-el integral package), F12 methods
   Garnet Chan, S. Sharma, J. Yang, R. Olivares  : DMRG
   Ulf Ekstrom                                   : XCFun DFT Library
   Mihaly Kallay                                 : mrcc  (arbitrary order and MRCC methods)
   Andreas Klamt, Michael Diedenhofen            : otool_cosmo (COSMO solvation model)
   Jiri Pittner, Ondrej Demel                    : Mk-CCSD
   Frank Weinhold                                : gennbo (NPA and NBO analysis)
   Christopher J. Cramer and Donald G. Truhlar   : smd solvation model


 Your calculation uses the libint2 library for the computation of 2-el integrals
 For citations please refer to: http://libint.valeyev.net

 This ORCA versions uses:
   CBLAS   interface :  Fast vector & matrix operations
   LAPACKE interface :  Fast linear algebra routines
   SCALAPACK package :  Parallel linear algebra routines




*****************************************
The coordinations will be read from file: ../../../../chem_database/N.xyz
*****************************************


Your calculation utilizes the basis: def2-QZVP
   F. Weigend and R. Ahlrichs, Phys. Chem. Chem. Phys. 7, 3297 (2005).

================================================================================
                                        WARNINGS
                       Please study these warnings very carefully!
================================================================================

Warning: TCutStore was < 0. Adjusted to Thresh (uncritical)

WARNING: your system is open-shell and RHF/RKS was chosen
  ===> : WILL SWITCH to UHF/UKS


INFO   : the flag for use of LIBINT has been found!

================================================================================
                                       INPUT FILE
================================================================================
NAME = mol.inp
|  1> # ================================================================
|  2> # Orca input file
|  3> # ================================================================
|  4> ! HF def2-QZVP VeryTightSCF UseSym
|  5> 
|  6> ! PAL4
|  7> 
|  8> %scf
|  9>   STABPerform true
| 10> #  STABRestartUHFifUnstable true
| 11> end
| 12> 
| 13> 
| 14> 
| 15> * xyzfile 0 4 ../../../../chem_database/N.xyz
| 16> 
| 17>                          ****END OF INPUT****
================================================================================

------------------------------------------------------------------------------
                            SYMMETRY HANDLING SETUP
------------------------------------------------------------------------------

------------------
SYMMETRY DETECTION
------------------
Preparing Data                    ... done
Detection Threshold:    SymThresh ... 1.0000e-04

Point Group will now be determined:
Moving molecule to center of mass ... done

POINT GROUP                       ... Kh

The coordinates will now be cleaned:
Structure cleanup requested       ... yes
Selected point group              ... Kh
Cleaning Tolerance      SymThresh ... 1.0000e-04

Cleaning coordinates              ... done

-----------------------------------------------
SYMMETRY-PERFECTED CARTESIAN COORDINATES (A.U.)
-----------------------------------------------
Warning (ORCA_SYM): Coordinates were not cleaned so far!

------------------
SYMMETRY REDUCTION
------------------
ORCA supports only abelian point groups.
It is now checked, if the determined point group is supported:
Point Group ( Kh    ) is          ... NOT supported
Reducing to abelian subgroup      ... D2h

(Re)building abelian point group:
Creating Character Table          ... done
Making direct product table       ... done
Constructing symmetry operations  ... done
Creating atom transfer table      ... done
Creating asymmetric unit          ... done

----------------------
ASYMMETRIC UNIT IN D2h
----------------------
  #  AT     MASS              COORDS (A.U.)             BAS
   0 N   14.0070   0.00000000   0.00000000   0.00000000   0

----------------------
SYMMETRY ADAPTED BASIS
----------------------
The coefficients for the symmetry adapted linear combinations (SALCS)
of basis functions will now be computed:
Number of basis functions         ...    57
Preparing memory                  ... done
Constructing Gamma(red)           ... done
Reducing Gamma(red)               ... done
Constructing SALCs                ... done
Checking SALC integrity           ... nothing suspicious
Normalizing SALCs                 ... done

Storing the symmetry object:
Symmetry file                     ... mol.sym.tmp
Writing symmetry information      ... done

                       ****************************
                       * Single Point Calculation *
                       ****************************

---------------------------------
CARTESIAN COORDINATES (ANGSTROEM)
---------------------------------
  N      0.000000    0.000000    0.000000

----------------------------
CARTESIAN COORDINATES (A.U.)
----------------------------
  NO LB      ZA    FRAG     MASS         X           Y           Z
   0 N     7.0000    0    14.007    0.000000    0.000000    0.000000

--------------------------------
INTERNAL COORDINATES (ANGSTROEM)
--------------------------------
 N      0   0   0     0.000000000000     0.00000000     0.00000000

---------------------------
INTERNAL COORDINATES (A.U.)
---------------------------
 N      0   0   0     0.000000000000     0.00000000     0.00000000

---------------------
BASIS SET INFORMATION
---------------------
There are 1 groups of distinct atoms

 Group   1 Type N   : 15s8p3d2f1g contracted to 7s4p3d2f1g pattern {8211111/5111/111/11/1}

Atom   0N    basis set group =>   1


           ************************************************************
           *        Program running with 4 parallel MPI-processes     *
           *              working on a common directory               *
           ************************************************************
------------------------------------------------------------------------------
                           ORCA GTO INTEGRAL CALCULATION
------------------------------------------------------------------------------

                         BASIS SET STATISTICS AND STARTUP INFO

 # of primitive gaussian shells          ...   29
 # of primitive gaussian functions       ...   77
 # of contracted shells                  ...   17
 # of contracted basis functions         ...   57
 Highest angular momentum                ...    4
 Maximum contraction depth               ...    8
 Integral package used                   ... LIBINT
 Integral threshhold            Thresh   ...  1.000e-12
 Primitive cut-off              TCut     ...  1.000e-14


------------------------------ INTEGRAL EVALUATION ----------------------------


 * One electron integrals 
 Pre-screening matrix                    ... done
 Shell pair data                         ... done (   0.000 sec)



           ************************************************************
           *        Program running with 4 parallel MPI-processes     *
           *              working on a common directory               *
           ************************************************************
-------------------------------------------------------------------------------
                                 ORCA SCF
-------------------------------------------------------------------------------

------------
SCF SETTINGS
------------
Hamiltonian:
 Ab initio Hamiltonian  Method          .... Hartree-Fock(GTOs)


General Settings:
 Integral files         IntName         .... mol
 Hartree-Fock type      HFTyp           .... UHF
 Total Charge           Charge          ....    0
 Multiplicity           Mult            ....    4
 Number of Electrons    NEL             ....    7
 Basis Dimension        Dim             ....   57
 Nuclear Repulsion      ENuc            ....      0.0000000000 Eh

 Symmetry handling      UseSym         .... ON
 Point group                           .... D2h
 Used point group                      .... D2h
 Number of irreps                      .... 8
   Irrep   Ag has   16 symmetry adapted basis functions (ofs=   0)
   Irrep  B1g has    5 symmetry adapted basis functions (ofs=  16)
   Irrep  B2g has    5 symmetry adapted basis functions (ofs=  21)
   Irrep  B3g has    5 symmetry adapted basis functions (ofs=  26)
   Irrep   Au has    2 symmetry adapted basis functions (ofs=  31)
   Irrep  B1u has    8 symmetry adapted basis functions (ofs=  33)
   Irrep  B2u has    8 symmetry adapted basis functions (ofs=  41)
   Irrep  B3u has    8 symmetry adapted basis functions (ofs=  49)

Convergence Acceleration:
 DIIS                   CNVDIIS         .... on
   Start iteration      DIISMaxIt       ....    12
   Startup error        DIISStart       ....  0.200000
   # of expansion vecs  DIISMaxEq       ....     5
   Bias factor          DIISBfac        ....   1.050
   Max. coefficient     DIISMaxC        ....  10.000
 Newton-Raphson         CNVNR           .... off
 SOSCF                  CNVSOSCF        .... off
 Level Shifting         CNVShift        .... on
   Level shift para.    LevelShift      ....    0.2500
   Turn off err/grad.   ShiftErr        ....    0.0010
 Zerner damping         CNVZerner       .... off
 Static damping         CNVDamp         .... on
   Fraction old density DampFac         ....    0.7000
   Max. Damping (<1)    DampMax         ....    0.9800
   Min. Damping (>=0)   DampMin         ....    0.0000
   Turn off err/grad.   DampErr         ....    0.1000
 Fernandez-Rico         CNVRico         .... off

SCF Procedure:
 Maximum # iterations   MaxIter         ....   125
 SCF integral mode      SCFMode         .... Direct
   Integral package                     .... LIBINT
 Reset frequeny         DirectResetFreq ....    20
 Integral Threshold     Thresh          ....  1.000e-12 Eh
 Primitive CutOff       TCut            ....  1.000e-14 Eh

Convergence Tolerance:
 Convergence Check Mode ConvCheckMode   .... Total+1el-Energy
 Convergence forced     ConvForced      .... 0
 Energy Change          TolE            ....  1.000e-09 Eh
 1-El. energy change                    ....  1.000e-06 Eh
 DIIS Error             TolErr          ....  1.000e-08


Diagonalization of the overlap matrix:
Smallest eigenvalue                        ... 5.947e-03
Time for diagonalization                   ...    0.006 sec
Threshold for overlap eigenvalues          ... 1.000e-08
Number of eigenvalues below threshold      ... 0
Time for construction of square roots      ...    0.001 sec
Producing symmetrization matrix            ... done (   0.000 sec)
Total time needed                          ...    0.007 sec

-------------------
DFT GRID GENERATION
-------------------

General Integration Accuracy     IntAcc      ...  4.340
Radial Grid Type                 RadialGrid  ... Gauss-Chebyshev
Angular Grid (max. acc.)         AngularGrid ... Lebedev-110
Angular grid pruning method      GridPruning ... 3 (G Style)
Weight generation scheme         WeightScheme... Becke
Basis function cutoff            BFCut       ...    1.0000e-12
Integration weight cutoff        WCut        ...    1.0000e-14
Grids for H and He will be reduced by one unit

# of grid points (after initial pruning)     ...   1702 (   0.0 sec)
# of grid points (after weights+screening)   ...   1702 (   0.0 sec)
Grid point division into batches done        ...    0.0 sec
Reduced shell lists constructed in    0.0 sec

Total number of grid points                  ...     1702
Total number of batches                      ...       27
Average number of points per batch           ...       63
Average number of grid points per atom       ...     1702
Average number of shells per batch           ...    10.62 (62.50%)
Average number of basis functions per batch  ...    41.62 (73.03%)
Average number of large shells per batch     ...     9.00 (84.71%)
Average number of large basis fcns per batch ...    34.00 (81.68%)
Maximum spatial batch extension              ...  13.89, 25.65, 25.65 au
Average spatial batch extension              ...   3.20,  4.34,  5.31 au

Time for grid setup =    0.019 sec

------------------------------
INITIAL GUESS: MODEL POTENTIAL
------------------------------
Loading Hartree-Fock densities                     ... done
Calculating cut-offs                               ... done
Setting up the integral package                    ... done
Initializing the effective Hamiltonian             ... done
Starting the Coulomb interaction                   ... done (   0.0 sec)
Reading the grid                                   ... done
Mapping shells                                     ... done
Starting the XC term evaluation                    ... done (   0.0 sec)
done (   0.0 sec)
Diagonalizing the Hamiltonian                      ... done (   0.0 sec)
Back transforming the eigenvectors                 ... done (   0.0 sec)
Now organizing SCF variables                       ... done
The symmetry of the initial guess is 4-Au
Irrep occupations for operator 0
    Ag -    2
   B1g -    0
   B2g -    0
   B3g -    0
    Au -    0
   B1u -    1
   B2u -    1
   B3u -    1
Irrep occupations for operator 1
    Ag -    2
   B1g -    0
   B2g -    0
   B3g -    0
    Au -    0
   B1u -    0
   B2u -    0
   B3u -    0
                      ------------------
                      INITIAL GUESS DONE (   0.2 sec)
                      ------------------
--------------
SCF ITERATIONS
--------------
ITER       Energy         Delta-E        Max-DP      RMS-DP      [F,P]     Damp
               ***  Starting incremental Fock matrix formation  ***
  0    -54.3850232596   0.000000000000 0.00808542  0.00032310  0.3430235 0.7000
  1    -54.3897363869  -0.004713127308 0.00860676  0.00030113  0.2444455 0.7000
                               ***Turning on DIIS***
  2    -54.3934318142  -0.003695427278 0.00751013  0.00024858  0.1733220 0.7000
  3    -54.3497402419   0.043691572249 0.00762854  0.00023785  0.1229266 0.7000
  4    -54.3537008430  -0.003960601104 0.02207557  0.00070050  0.0866228 0.0000
  5    -54.4032953428  -0.049594499787 0.00606967  0.00013513  0.0038169 0.0000
  6    -54.4018748907   0.001420452142 0.00540043  0.00011389  0.0020181 0.0000
  7    -54.4035365118  -0.001661621146 0.00239669  0.00004441  0.0005208 0.0000
  8    -54.4043837991  -0.000847287282 0.00009234  0.00000166  0.0000290 0.0000
  9    -54.4043897112  -0.000005912100 0.00001133  0.00000038  0.0000027 0.0000
 10    -54.4043890903   0.000000620868 0.00000580  0.00000016  0.0000014 0.0000
 11    -54.4043855176   0.000003572752 0.00000084  0.00000002  0.0000002 0.0000
                            ***DIIS convergence achieved***

               *****************************************************
               *                     SUCCESS                       *
               *           SCF CONVERGED AFTER  12 CYCLES          *
               *****************************************************


------------------------------------------------------------------------------
                          SCF STABILITY ANALYSIS                              
------------------------------------------------------------------------------


                       ****Iteration    0****

   Memory handling for direct AO based CIS:
   Memory per vector needed      ...     1 MB
   Memory needed                 ...     0 MB
   Memory available              ...  1024 MB
   Number of vectors per batch   ...  1024
   Number of batches             ...     1
   Time for densities:     0.000
   Using LibInt in JK Direct
   Time for J+K (Direct):     0.110
   Time for Sigma-Completion:     0.001
   Lowest Energy          :     0.456170107578
   Maximum Energy change  :     0.456170107578 (vector 2)
   Maximum residual norm  :     0.107771929900

                       ****Iteration    1****
   Time for densities:     0.000
   Using LibInt in JK Direct
   Time for J+K (Direct):     0.093
   Time for Sigma-Completion:     0.000
   Lowest Energy          :     0.346898613140
   Maximum Energy change  :     0.109271494438 (vector 1)
   Maximum residual norm  :     0.017179664283

                       ****Iteration    2****
   Time for densities:     0.000
   Using LibInt in JK Direct
   Time for J+K (Direct):     0.093
   Time for Sigma-Completion:     0.000
   Lowest Energy          :     0.324875333392
   Maximum Energy change  :     0.022023279748 (vector 0)
   Maximum residual norm  :     0.000743628147

                       ****Iteration    3****
   Time for densities:     0.000
   Using LibInt in JK Direct
   Time for J+K (Direct):     0.092
   Time for Sigma-Completion:     0.000
   Lowest Energy          :     0.323747104495
   Maximum Energy change  :     0.001128228897 (vector 0)
   Maximum residual norm  :     0.000101122924

                       ****Iteration    4****
   Time for densities:     0.000
   Using LibInt in JK Direct
   Time for J+K (Direct):     0.093
   Time for Sigma-Completion:     0.000
   Lowest Energy          :     0.323668661616
   Maximum Energy change  :     0.000078442879 (vector 1)

         *** CONVERGENCE OF ENERGIES REACHED ***

----------------------------- 
SCF STABILITY ANALYSIS RESULT 
----------------------------- 

UHF/UKS->UHF/UKS - singlet - internal

   Root    Eigenvalue (au) 
     0       0.323669 
     1       0.323669 
     2       0.323669 

Stability Analysis indicates a stable HF/KS wave function.


Total time for performing the stability analysis:     0.488sec


----------------
TOTAL SCF ENERGY
----------------

Total Energy       :          -54.40438529 Eh           -1480.41859 eV

Components:
Nuclear Repulsion  :            0.00000000 Eh               0.00000 eV
Electronic Energy  :          -54.40438529 Eh           -1480.41859 eV
One Electron Energy:          -73.95721736 Eh           -2012.47820 eV
Two Electron Energy:           19.55283207 Eh             532.05961 eV

Virial components:
Potential Energy   :         -108.81023374 Eh           -2960.87699 eV
Kinetic Energy     :           54.40584846 Eh            1480.45840 eV
Virial Ratio       :            1.99997311


---------------
SCF CONVERGENCE
---------------

  Last Energy change         ...    2.3124e-07  Tolerance :   1.0000e-09
  Last MAX-Density change    ...    6.2387e-08  Tolerance :   1.0000e-08
  Last RMS-Density change    ...    1.2335e-09  Tolerance :   1.0000e-09
  Last DIIS Error            ...    1.2925e-08  Tolerance :   1.0000e-08

             **** THE GBW FILE WAS UPDATED (mol.gbw) ****
             **** DENSITY FILE WAS UPDATED (mol.scfp.tmp) ****
             **** ENERGY FILE WAS UPDATED (mol.en.tmp) ****
----------------------
UHF SPIN CONTAMINATION
----------------------

Expectation value of <S**2>     :     3.757515
Ideal value S*(S+1) for S=1.5   :     3.750000
Deviation                       :     0.007515

----------------
ORBITAL ENERGIES
----------------
                 SPIN UP ORBITALS
  NO   OCC          E(Eh)            E(eV)    Irrep 
   0   1.0000     -15.670334      -426.4115    1-Ag
   1   1.0000      -1.162667       -31.6378    2-Ag
   2   1.0000      -0.570659       -15.5284    1-B2u
   3   1.0000      -0.570659       -15.5284    1-B3u
   4   1.0000      -0.570659       -15.5284    1-B1u
   5   0.0000       0.291019         7.9190    2-B3u
   6   0.0000       0.291019         7.9190    2-B1u
   7   0.0000       0.291019         7.9190    2-B2u
   8   0.0000       0.390364        10.6223    3-Ag
   9   0.0000       0.879257        23.9258    1-B1g
  10   0.0000       0.879257        23.9258    1-B3g
  11   0.0000       0.879257        23.9258    1-B2g
  12   0.0000       0.879257        23.9258    4-Ag
  13   0.0000       0.879257        23.9258    5-Ag
  14   0.0000       1.262519        34.3549    3-B3u
  15   0.0000       1.262519        34.3549    3-B2u
  16   0.0000       1.262519        34.3549    3-B1u
  17   0.0000       2.316808        63.0435    6-Ag
  18   0.0000       2.656015        72.2739    4-B3u
  19   0.0000       2.656015        72.2739    4-B1u
  20   0.0000       2.656015        72.2739    4-B2u
  21   0.0000       2.656015        72.2739    5-B1u
  22   0.0000       2.656015        72.2739    5-B3u
  23   0.0000       2.656015        72.2739    5-B2u
  24   0.0000       2.656015        72.2739    1-Au
  25   0.0000       3.000628        81.6512    7-Ag
  26   0.0000       3.000628        81.6512    8-Ag
  27   0.0000       3.000628        81.6512    2-B1g
  28   0.0000       3.000628        81.6512    2-B3g
  29   0.0000       3.000628        81.6512    2-B2g
  30   0.0000       4.341439       118.1366    6-B2u
  31   0.0000       4.341439       118.1366    6-B3u
  32   0.0000       4.341439       118.1366    6-B1u
  33   0.0000       7.155863       194.7209    9-Ag
  34   0.0000       7.155863       194.7209    3-B2g
  35   0.0000       7.155863       194.7209    3-B3g
  36   0.0000       7.155863       194.7209    3-B1g
  37   0.0000       7.155863       194.7209   10-Ag
  38   0.0000       7.155863       194.7209   11-Ag
  39   0.0000       7.155863       194.7209    4-B3g
  40   0.0000       7.155863       194.7209    4-B1g
  41   0.0000       7.155863       194.7209    4-B2g
  42   0.0000       8.788626       239.1507    7-B3u
  43   0.0000       8.788626       239.1507    7-B1u
  44   0.0000       8.788626       239.1507    7-B2u
  45   0.0000       8.788626       239.1507    8-B1u
  46   0.0000       8.788626       239.1507    8-B3u
  47   0.0000       8.788626       239.1507    8-B2u
  48   0.0000       8.788626       239.1507    2-Au
  49   0.0000       9.365831       254.8572    5-B1g
  50   0.0000       9.365831       254.8572    5-B3g
  51   0.0000       9.365831       254.8572    5-B2g
  52   0.0000       9.365831       254.8572   12-Ag
  53   0.0000       9.365831       254.8572   13-Ag
  54   0.0000       9.812680       267.0166   14-Ag
  55   0.0000      37.054851      1008.3138   15-Ag
  56   0.0000     197.795552      5382.2906   16-Ag

                 SPIN DOWN ORBITALS
  NO   OCC          E(Eh)            E(eV)    Irrep 
   0   1.0000     -15.580686      -423.9720    1-Ag
   1   1.0000      -0.725889       -19.7524    2-Ag
   2   0.0000       0.111733         3.0404    1-B3u
   3   0.0000       0.111733         3.0404    1-B2u
   4   0.0000       0.111733         3.0404    1-B1u
   5   0.0000       0.411627        11.2009    2-B3u
   6   0.0000       0.411627        11.2009    2-B1u
   7   0.0000       0.411627        11.2009    2-B2u
   8   0.0000       0.455882        12.4052    3-Ag
   9   0.0000       0.975064        26.5328    1-B3g
  10   0.0000       0.975064        26.5328    1-B2g
  11   0.0000       0.975064        26.5328    1-B1g
  12   0.0000       0.975064        26.5328    4-Ag
  13   0.0000       0.975064        26.5328    5-Ag
  14   0.0000       1.406305        38.2675    3-B3u
  15   0.0000       1.406305        38.2675    3-B1u
  16   0.0000       1.406305        38.2675    3-B2u
  17   0.0000       2.433720        66.2249    6-Ag
  18   0.0000       2.729934        74.2853    1-Au
  19   0.0000       2.729934        74.2853    4-B1u
  20   0.0000       2.729934        74.2853    4-B3u
  21   0.0000       2.729934        74.2853    4-B2u
  22   0.0000       2.729934        74.2853    5-B1u
  23   0.0000       2.729934        74.2853    5-B3u
  24   0.0000       2.729934        74.2853    5-B2u
  25   0.0000       3.171670        86.3055    2-B1g
  26   0.0000       3.171670        86.3055    2-B2g
  27   0.0000       3.171670        86.3055    2-B3g
  28   0.0000       3.171670        86.3055    7-Ag
  29   0.0000       3.171670        86.3055    8-Ag
  30   0.0000       4.474704       121.7629    6-B2u
  31   0.0000       4.474704       121.7629    6-B3u
  32   0.0000       4.474704       121.7629    6-B1u
  33   0.0000       7.226212       196.6352    9-Ag
  34   0.0000       7.226212       196.6352    3-B2g
  35   0.0000       7.226212       196.6352    3-B3g
  36   0.0000       7.226212       196.6352    3-B1g
  37   0.0000       7.226212       196.6352   10-Ag
  38   0.0000       7.226212       196.6352   11-Ag
  39   0.0000       7.226212       196.6352    4-B3g
  40   0.0000       7.226212       196.6352    4-B1g
  41   0.0000       7.226212       196.6352    4-B2g
  42   0.0000       8.895595       242.0614    7-B1u
  43   0.0000       8.895595       242.0614    7-B3u
  44   0.0000       8.895595       242.0614    7-B2u
  45   0.0000       8.895595       242.0614    8-B1u
  46   0.0000       8.895595       242.0614    8-B3u
  47   0.0000       8.895595       242.0614    8-B2u
  48   0.0000       8.895595       242.0614    2-Au
  49   0.0000       9.494079       258.3470    5-B1g
  50   0.0000       9.494079       258.3470    5-B3g
  51   0.0000       9.494079       258.3470    5-B2g
  52   0.0000       9.494079       258.3470   12-Ag
  53   0.0000       9.494079       258.3470   13-Ag
  54   0.0000       9.905657       269.5466   14-Ag
  55   0.0000      37.095050      1009.4076   15-Ag
  56   0.0000     197.805619      5382.5645   16-Ag

                    ********************************
                    * MULLIKEN POPULATION ANALYSIS *
                    ********************************

--------------------------------------------
MULLIKEN ATOMIC CHARGES AND SPIN POPULATIONS
--------------------------------------------
   0 N :   -0.000000    3.000000
Sum of atomic charges         :   -0.0000000
Sum of atomic spin populations:    3.0000000

-----------------------------------------------------
MULLIKEN REDUCED ORBITAL CHARGES AND SPIN POPULATIONS
-----------------------------------------------------
CHARGE
  0 N s       :     4.000000  s :     4.000000
      pz      :     1.000000  p :     3.000000
      px      :     1.000000
      py      :     1.000000
      dz2     :     0.000000  d :     0.000000
      dxz     :     0.000000
      dyz     :     0.000000
      dx2y2   :     0.000000
      dxy     :     0.000000
      f0      :     0.000000  f :     0.000000
      f+1     :     0.000000
      f-1     :     0.000000
      f+2     :     0.000000
      f-2     :     0.000000
      f+3     :     0.000000
      f-3     :     0.000000
      g0      :     0.000000  g :     0.000000
      g+1     :     0.000000
      g-1     :     0.000000
      g+2     :     0.000000
      g-2     :     0.000000
      g+3     :     0.000000
      g-3     :     0.000000
      g+4     :     0.000000
      g-4     :     0.000000

SPIN
  0 N s       :     0.000000  s :     0.000000
      pz      :     1.000000  p :     3.000000
      px      :     1.000000
      py      :     1.000000
      dz2     :     0.000000  d :     0.000000
      dxz     :     0.000000
      dyz     :     0.000000
      dx2y2   :    -0.000000
      dxy     :     0.000000
      f0      :     0.000000  f :     0.000000
      f+1     :     0.000000
      f-1     :     0.000000
      f+2     :     0.000000
      f-2     :     0.000000
      f+3     :     0.000000
      f-3     :     0.000000
      g0      :     0.000000  g :     0.000000
      g+1     :     0.000000
      g-1     :    -0.000000
      g+2     :     0.000000
      g-2     :     0.000000
      g+3     :     0.000000
      g-3     :     0.000000
      g+4     :     0.000000
      g-4     :     0.000000


                     *******************************
                     * LOEWDIN POPULATION ANALYSIS *
                     *******************************

-------------------------------------------
LOEWDIN ATOMIC CHARGES AND SPIN POPULATIONS
-------------------------------------------
   0 N :    0.000000    3.000000

----------------------------------------------------
LOEWDIN REDUCED ORBITAL CHARGES AND SPIN POPULATIONS
----------------------------------------------------
CHARGE
  0 N s       :     4.000000  s :     4.000000
      pz      :     1.000000  p :     3.000000
      px      :     1.000000
      py      :     1.000000
      dz2     :     0.000000  d :     0.000000
      dxz     :     0.000000
      dyz     :     0.000000
      dx2y2   :     0.000000
      dxy     :     0.000000
      f0      :     0.000000  f :     0.000000
      f+1     :     0.000000
      f-1     :     0.000000
      f+2     :     0.000000
      f-2     :     0.000000
      f+3     :     0.000000
      f-3     :     0.000000
      g0      :     0.000000  g :     0.000000
      g+1     :     0.000000
      g-1     :     0.000000
      g+2     :     0.000000
      g-2     :     0.000000
      g+3     :     0.000000
      g-3     :     0.000000
      g+4     :     0.000000
      g-4     :     0.000000

SPIN
  0 N s       :     0.000000  s :     0.000000
      pz      :     1.000000  p :     3.000000
      px      :     1.000000
      py      :     1.000000
      dz2     :     0.000000  d :     0.000000
      dxz     :     0.000000
      dyz     :     0.000000
      dx2y2   :    -0.000000
      dxy     :     0.000000
      f0      :     0.000000  f :     0.000000
      f+1     :     0.000000
      f-1     :     0.000000
      f+2     :     0.000000
      f-2     :     0.000000
      f+3     :     0.000000
      f-3     :     0.000000
      g0      :     0.000000  g :     0.000000
      g+1     :     0.000000
      g-1     :     0.000000
      g+2     :     0.000000
      g-2     :     0.000000
      g+3     :     0.000000
      g-3     :     0.000000
      g+4     :     0.000000
      g-4     :     0.000000


                      *****************************
                      * MAYER POPULATION ANALYSIS *
                      *****************************

  NA   - Mulliken gross atomic population
  ZA   - Total nuclear charge
  QA   - Mulliken gross atomic charge
  VA   - Mayer's total valence
  BVA  - Mayer's bonded valence
  FA   - Mayer's free valence

  ATOM       NA         ZA         QA         VA         BVA        FA
  0 N      7.0000     7.0000    -0.0000     3.0150     0.0000     3.0150

  Mayer bond orders larger than 0.1


-------
TIMINGS
-------

Total SCF time: 0 days 0 hours 0 min 2 sec 

Total time                  ....       2.749 sec
Sum of individual times     ....       2.733 sec  ( 99.4%)

Fock matrix formation       ....       2.065 sec  ( 75.1%)
Diagonalization             ....       0.013 sec  (  0.5%)
Density matrix formation    ....       0.001 sec  (  0.0%)
Population analysis         ....       0.001 sec  (  0.0%)
Initial guess               ....       0.142 sec  (  5.2%)
Orbital Transformation      ....       0.000 sec  (  0.0%)
Orbital Orthonormalization  ....       0.000 sec  (  0.0%)
DIIS solution               ....       0.004 sec  (  0.2%)
SCF Stability Analysis      ....       0.488 sec  ( 17.7%)

-------------------------   --------------------
FINAL SINGLE POINT ENERGY       -54.404385286325
-------------------------   --------------------


                            ***************************************
                            *     ORCA property calculations      *
                            ***************************************

                                    ---------------------
                                    Active property flags
                                    ---------------------
   (+) Dipole Moment


------------------------------------------------------------------------------
                       ORCA ELECTRIC PROPERTIES CALCULATION
------------------------------------------------------------------------------

Dipole Moment Calculation                       ... on
Quadrupole Moment Calculation                   ... off
Polarizability Calculation                      ... off
GBWName                                         ... mol.gbw
Electron density file                           ... mol.scfp.tmp
The origin for moment calculation is the CENTER OF MASS  = ( 0.000000,  0.000000  0.000000)

-------------
DIPOLE MOMENT
-------------
                                X             Y             Z
Electronic contribution:      0.00000       0.00000      -0.00000
Nuclear contribution   :      0.00000       0.00000       0.00000
                        -----------------------------------------
Total Dipole Moment    :      0.00000       0.00000      -0.00000
                        -----------------------------------------
Magnitude (a.u.)       :      0.00000
Magnitude (Debye)      :      0.00000


Timings for individual modules:

Sum of individual times         ...        3.418 sec (=   0.057 min)
GTO integral calculation        ...        0.444 sec (=   0.007 min)  13.0 %
SCF iterations                  ...        2.974 sec (=   0.050 min)  87.0 %
                             ****ORCA TERMINATED NORMALLY****
TOTAL RUN TIME: 0 days 0 hours 0 minutes 3 seconds 764 msec
