[Molden Format]
[Title]
 Molden file created by orca_2mkl for BaseName=mol

[Atoms] AU
Ca   1  20          0.0000000000         0.0000000000         0.0000000000 
[GTO]
  1 0
s  11 1.0 
  2433075.4304000000         0.4190993910
   364160.4301500000         0.7844629482
    82898.7476370000         1.3578763084
    23499.7305400000         2.2213582111
     7671.2245985000         3.4706321065
     2770.2330687000         5.1757464248
     1080.6807550000         7.2640781901
      448.0489453100         9.2489632998
      194.9200772700         9.9104179699
       88.0397933380         7.6885413283
       40.6456967190         3.2077825195
s   4 1.0 
      779.5333191800        -0.8851295436
      241.1885630000        -3.5216042129
       92.4038693240        -7.5461029973
       39.7860903420        -6.8959149546
s   1 1.0 
       18.1958642780         6.2789873603
s   1 1.0 
        8.3321457067         3.4952458941
s   1 1.0 
        3.9190196209         1.9851492801
s   1 1.0 
        1.6667099493         1.0454544443
s   1 1.0 
        0.8089108491         0.6079048207
s   1 1.0 
        0.3617419993         0.3324369531
s   1 1.0 
        0.0823798745         0.1095912642
s   1 1.0 
        0.0479478644         0.0730276026
s   1 1.0 
        0.0223081124         0.0411393296
p   9 1.0 
     4064.2232796000         9.1591888532
      962.9155062400        13.2467075876
      312.3450104600        17.8553975819
      118.7605603600        21.4742947254
       49.8161531330        22.0555127003
       22.2596794010        17.6871917836
       10.2860941240         9.9845416661
        4.8606982416         3.1724479041
        2.2525682942         0.3376767901
p   5 1.0 
       31.4675554430        -0.4628565709
       10.6575890560        -0.5516971630
        2.0505555426         0.7625530274
        0.9436208923         0.6297923651
        0.4270906750         0.1979310223
p   1 1.0 
        0.1778818721         0.1646662906
p   1 1.0 
        0.0860000000         0.0663839594
p   1 1.0 
        0.0415000000         0.0266993205
p   1 1.0 
        0.0200000000         0.0107208096
d   3 1.0 
       16.9240120980        23.3194767187
        4.4655403330        11.5568091252
        1.4347576200         4.1946366448
d   1 1.0 
        0.4655237678         0.7479427163
d   1 1.0 
        0.1409771108         0.0924655897
d   1 1.0 
        0.0414670093         0.0108630013
f   1 1.0 
        0.3210000000         0.4422179858

[5D]
[9G]
[MO]
 Sym=     1a
 Ene= -1.49364591790766E+02
 Spin= Alpha
 Occup= 2.000000
  1      -0.960427254563
  2      -0.000541404054
  3      -0.060375878765
  4       0.000825436367
  5      -0.001780786025
  6       0.000856602620
  7      -0.000418687859
  8       0.000177757044
  9      -0.000091123056
 10       0.000077925033
 11      -0.000019868352
 12       0.000000000000
 13       0.000000000000
 14       0.000000000000
 15      -0.000000000000
 16      -0.000000000000
 17      -0.000000000000
 18       0.000000000000
 19       0.000000000000
 20       0.000000000000
 21       0.000000000000
 22      -0.000000000000
 23      -0.000000000000
 24       0.000000000000
 25      -0.000000000000
 26      -0.000000000000
 27      -0.000000000000
 28      -0.000000000000
 29       0.000000000000
 30      -0.000000000000
 31      -0.000000000000
 32       0.000000000000
 33      -0.000000000000
 34       0.000000000000
 35       0.000000000000
 36       0.000000000000
 37      -0.000000000000
 38      -0.000000000000
 39       0.000000000000
 40       0.000000000000
 41       0.000000000000
 42      -0.000000000000
 43       0.000000000000
 44      -0.000000000000
 45      -0.000000000000
 46      -0.000000000000
 47       0.000000000000
 48      -0.000000000000
 49       0.000000000000
 50      -0.000000000000
 51      -0.000000000000
 52       0.000000000000
 53      -0.000000000000
 54      -0.000000000000
 55      -0.000000000000
 56       0.000000000000
 Sym=     1a
 Ene= -1.68232532393167E+01
 Spin= Alpha
 Occup= 2.000000
  1       0.281736138146
  2      -0.172740746057
  3      -0.065716700684
  4      -0.516806078776
  5      -0.493937522283
  6      -0.084392581438
  7       0.005031578611
  8      -0.002808224833
  9       0.000946913093
 10      -0.000801625684
 11       0.000202485280
 12      -0.000000000000
 13       0.000000000000
 14       0.000000000000
 15       0.000000000000
 16      -0.000000000000
 17       0.000000000000
 18       0.000000000000
 19       0.000000000000
 20      -0.000000000000
 21       0.000000000000
 22      -0.000000000000
 23      -0.000000000000
 24      -0.000000000000
 25      -0.000000000000
 26       0.000000000000
 27       0.000000000000
 28      -0.000000000000
 29      -0.000000000000
 30      -0.000000000000
 31      -0.000000000000
 32       0.000000000000
 33      -0.000000000000
 34       0.000000000000
 35       0.000000000000
 36       0.000000000000
 37      -0.000000000000
 38       0.000000000000
 39      -0.000000000000
 40       0.000000000000
 41      -0.000000000000
 42      -0.000000000000
 43      -0.000000000000
 44      -0.000000000000
 45      -0.000000000000
 46      -0.000000000000
 47       0.000000000000
 48       0.000000000000
 49       0.000000000000
 50      -0.000000000000
 51      -0.000000000000
 52       0.000000000000
 53       0.000000000000
 54      -0.000000000000
 55      -0.000000000000
 56       0.000000000000
 Sym=     1a
 Ene= -1.36297927066636E+01
 Spin= Alpha
 Occup= 2.000000
  1       0.000000000000
  2       0.000000000000
  3       0.000000000000
  4       0.000000000000
  5       0.000000000000
  6       0.000000000000
  7       0.000000000000
  8       0.000000000000
  9       0.000000000000
 10       0.000000000000
 11       0.000000000000
 12       0.000000000000
 13      -0.998857276231
 14       0.000000000000
 15      -0.000000000000
 16      -0.003643057344
 17      -0.000000000000
 18       0.000000000000
 19       0.000921189118
 20       0.000000000000
 21      -0.000000000000
 22      -0.000615369717
 23      -0.000000000000
 24      -0.000000000000
 25       0.000317505361
 26       0.000000000000
 27       0.000000000000
 28      -0.000092700897
 29      -0.000000000000
 30      -0.000000000000
 31       0.000000000000
 32       0.000000000000
 33      -0.000000000000
 34      -0.000000000000
 35       0.000000000000
 36      -0.000000000000
 37      -0.000000000000
 38       0.000000000000
 39      -0.000000000000
 40      -0.000000000000
 41       0.000000000000
 42      -0.000000000000
 43      -0.000000000000
 44       0.000000000000
 45       0.000000000000
 46      -0.000000000000
 47       0.000000000000
 48       0.000000000000
 49      -0.000000000000
 50       0.000000000000
 51       0.000000000000
 52      -0.000000000000
 53       0.000000000000
 54      -0.000000000000
 55       0.000000000000
 56       0.000000000000
 Sym=     1a
 Ene= -1.36297927066636E+01
 Spin= Alpha
 Occup= 2.000000
  1       0.000000000000
  2       0.000000000000
  3       0.000000000000
  4       0.000000000000
  5       0.000000000000
  6       0.000000000000
  7       0.000000000000
  8       0.000000000000
  9       0.000000000000
 10       0.000000000000
 11       0.000000000000
 12       0.000000000000
 13      -0.000000000000
 14      -0.998857276231
 15       0.000000000000
 16       0.000000000000
 17      -0.003643057344
 18      -0.000000000000
 19      -0.000000000000
 20       0.000921189118
 21      -0.000000000000
 22       0.000000000000
 23      -0.000615369717
 24       0.000000000000
 25       0.000000000000
 26       0.000317505361
 27       0.000000000000
 28       0.000000000000
 29      -0.000092700897
 30       0.000000000000
 31       0.000000000000
 32      -0.000000000000
 33       0.000000000000
 34      -0.000000000000
 35      -0.000000000000
 36      -0.000000000000
 37       0.000000000000
 38      -0.000000000000
 39       0.000000000000
 40       0.000000000000
 41       0.000000000000
 42      -0.000000000000
 43      -0.000000000000
 44      -0.000000000000
 45       0.000000000000
 46       0.000000000000
 47       0.000000000000
 48       0.000000000000
 49       0.000000000000
 50       0.000000000000
 51      -0.000000000000
 52      -0.000000000000
 53       0.000000000000
 54       0.000000000000
 55      -0.000000000000
 56       0.000000000000
 Sym=     1a
 Ene= -1.36297927066636E+01
 Spin= Alpha
 Occup= 2.000000
  1       0.000000000000
  2       0.000000000000
  3       0.000000000000
  4       0.000000000000
  5       0.000000000000
  6       0.000000000000
  7       0.000000000000
  8       0.000000000000
  9       0.000000000000
 10       0.000000000000
 11       0.000000000000
 12      -0.998857276231
 13       0.000000000000
 14       0.000000000000
 15      -0.003643057344
 16       0.000000000000
 17      -0.000000000000
 18       0.000921189118
 19      -0.000000000000
 20       0.000000000000
 21      -0.000615369717
 22       0.000000000000
 23      -0.000000000000
 24       0.000317505361
 25       0.000000000000
 26      -0.000000000000
 27      -0.000092700897
 28       0.000000000000
 29       0.000000000000
 30      -0.000000000000
 31      -0.000000000000
 32      -0.000000000000
 33      -0.000000000000
 34       0.000000000000
 35       0.000000000000
 36       0.000000000000
 37       0.000000000000
 38      -0.000000000000
 39      -0.000000000000
 40      -0.000000000000
 41       0.000000000000
 42      -0.000000000000
 43      -0.000000000000
 44      -0.000000000000
 45       0.000000000000
 46      -0.000000000000
 47       0.000000000000
 48       0.000000000000
 49      -0.000000000000
 50       0.000000000000
 51      -0.000000000000
 52      -0.000000000000
 53      -0.000000000000
 54      -0.000000000000
 55      -0.000000000000
 56       0.000000000000
 Sym=     1a
 Ene= -2.24544100009562E+00
 Spin= Alpha
 Occup= 2.000000
  1       0.096836755433
  2      -0.068960789844
  3      -0.024796076993
  4      -0.273738365357
  5      -0.423794461176
  6       0.075089337765
  7       0.703001809472
  8       0.442675110165
  9       0.024397659983
 10      -0.013526512967
 11       0.002673108805
 12      -0.000000000000
 13      -0.000000000000
 14       0.000000000000
 15       0.000000000000
 16      -0.000000000000
 17      -0.000000000000
 18      -0.000000000000
 19      -0.000000000000
 20       0.000000000000
 21       0.000000000000
 22      -0.000000000000
 23      -0.000000000000
 24      -0.000000000000
 25      -0.000000000000
 26       0.000000000000
 27       0.000000000000
 28      -0.000000000000
 29      -0.000000000000
 30      -0.000000000000
 31      -0.000000000000
 32       0.000000000000
 33      -0.000000000000
 34       0.000000000000
 35       0.000000000000
 36       0.000000000000
 37      -0.000000000000
 38      -0.000000000000
 39      -0.000000000000
 40      -0.000000000000
 41      -0.000000000000
 42       0.000000000000
 43      -0.000000000000
 44      -0.000000000000
 45       0.000000000000
 46       0.000000000000
 47       0.000000000000
 48       0.000000000000
 49       0.000000000000
 50      -0.000000000000
 51       0.000000000000
 52       0.000000000000
 53       0.000000000000
 54      -0.000000000000
 55      -0.000000000000
 56       0.000000000000
 Sym=     1a
 Ene= -1.34074938221496E+00
 Spin= Alpha
 Occup= 2.000000
  1       0.000000000000
  2       0.000000000000
  3       0.000000000000
  4       0.000000000000
  5       0.000000000000
  6       0.000000000000
  7       0.000000000000
  8       0.000000000000
  9       0.000000000000
 10       0.000000000000
 11       0.000000000000
 12      -0.000000000000
 13       0.331745164873
 14       0.000000000000
 15       0.000000000000
 16      -0.998638116801
 17       0.000000000000
 18      -0.000000000000
 19      -0.089738984792
 20      -0.000000000000
 21       0.000000000000
 22       0.003851288669
 23       0.000000000000
 24       0.000000000000
 25      -0.003972885341
 26      -0.000000000000
 27      -0.000000000000
 28       0.000785240724
 29       0.000000000000
 30      -0.000000000000
 31      -0.000000000000
 32      -0.000000000000
 33      -0.000000000000
 34       0.000000000000
 35       0.000000000000
 36       0.000000000000
 37       0.000000000000
 38       0.000000000000
 39      -0.000000000000
 40      -0.000000000000
 41       0.000000000000
 42      -0.000000000000
 43      -0.000000000000
 44       0.000000000000
 45       0.000000000000
 46      -0.000000000000
 47       0.000000000000
 48       0.000000000000
 49      -0.000000000000
 50      -0.000000000000
 51      -0.000000000000
 52       0.000000000042
 53      -0.000000000000
 54       0.000000000000
 55      -0.000000000000
 56      -0.000000000054
 Sym=     1a
 Ene= -1.34074938221494E+00
 Spin= Alpha
 Occup= 2.000000
  1       0.000000000000
  2       0.000000000000
  3       0.000000000000
  4       0.000000000000
  5       0.000000000000
  6       0.000000000000
  7       0.000000000000
  8       0.000000000000
  9       0.000000000000
 10       0.000000000000
 11       0.000000000000
 12       0.331745164873
 13      -0.000000000000
 14       0.000000000000
 15      -0.998638116801
 16      -0.000000000000
 17      -0.000000000000
 18      -0.089738984792
 19       0.000000000000
 20      -0.000000000000
 21       0.003851288669
 22      -0.000000000000
 23       0.000000000000
 24      -0.003972885341
 25      -0.000000000000
 26      -0.000000000000
 27       0.000785240724
 28      -0.000000000000
 29       0.000000000000
 30      -0.000000000000
 31      -0.000000000000
 32       0.000000000000
 33       0.000000000000
 34      -0.000000000000
 35      -0.000000000000
 36       0.000000000000
 37      -0.000000000000
 38      -0.000000000000
 39      -0.000000000000
 40      -0.000000000000
 41      -0.000000000000
 42      -0.000000000000
 43       0.000000000000
 44       0.000000000000
 45      -0.000000000000
 46       0.000000000000
 47      -0.000000000000
 48      -0.000000000000
 49       0.000000000000
 50       0.000000000000
 51       0.000000000042
 52       0.000000000000
 53       0.000000000000
 54      -0.000000000000
 55       0.000000000054
 56       0.000000000000
 Sym=     1a
 Ene= -1.34074938221493E+00
 Spin= Alpha
 Occup= 2.000000
  1       0.000000000000
  2       0.000000000000
  3       0.000000000000
  4       0.000000000000
  5       0.000000000000
  6       0.000000000000
  7       0.000000000000
  8       0.000000000000
  9       0.000000000000
 10       0.000000000000
 11       0.000000000000
 12       0.000000000000
 13      -0.000000000000
 14      -0.331745164873
 15       0.000000000000
 16       0.000000000000
 17       0.998638116801
 18      -0.000000000000
 19      -0.000000000000
 20       0.089738984792
 21      -0.000000000000
 22       0.000000000000
 23      -0.003851288669
 24       0.000000000000
 25       0.000000000000
 26       0.003972885341
 27       0.000000000000
 28       0.000000000000
 29      -0.000785240724
 30       0.000000000000
 31       0.000000000000
 32       0.000000000000
 33       0.000000000000
 34      -0.000000000000
 35       0.000000000000
 36      -0.000000000000
 37      -0.000000000000
 38       0.000000000000
 39       0.000000000000
 40       0.000000000000
 41      -0.000000000000
 42      -0.000000000000
 43      -0.000000000000
 44      -0.000000000000
 45      -0.000000000000
 46       0.000000000000
 47       0.000000000000
 48       0.000000000000
 49      -0.000000000000
 50       0.000000000068
 51       0.000000000000
 52      -0.000000000000
 53      -0.000000000000
 54      -0.000000000000
 55       0.000000000000
 56       0.000000000000
 Sym=     1a
 Ene= -1.95527729288605E-01
 Spin= Alpha
 Occup= 2.000000
  1       0.023110426092
  2      -0.016753355845
  3      -0.005967226249
  4      -0.069153684686
  5      -0.113432017895
  6       0.028445222491
  7       0.231206660952
  8       0.315339103620
  9      -0.287914727746
 10      -0.563235123153
 11      -0.322116770095
 12      -0.000000000000
 13      -0.000000000000
 14      -0.000000000000
 15      -0.000000000000
 16       0.000000000000
 17      -0.000000000000
 18       0.000000000000
 19      -0.000000000000
 20      -0.000000000000
 21      -0.000000000000
 22      -0.000000000000
 23       0.000000000000
 24      -0.000000000000
 25       0.000000000000
 26      -0.000000000000
 27       0.000000000000
 28       0.000000000000
 29       0.000000000000
 30      -0.000000000000
 31       0.000000000000
 32       0.000000000000
 33      -0.000000000000
 34       0.000000000000
 35      -0.000000000000
 36       0.000000000000
 37      -0.000000000000
 38      -0.000000000000
 39      -0.000000000000
 40      -0.000000000000
 41       0.000000000000
 42      -0.000000000000
 43      -0.000000000000
 44      -0.000000000000
 45      -0.000000000000
 46       0.000000000000
 47       0.000000000000
 48      -0.000000000000
 49      -0.000000000000
 50       0.000000000000
 51       0.000000000000
 52       0.000000000000
 53       0.000000000000
 54       0.000000000000
 55      -0.000000000000
 56       0.000000000000
 Sym=     1a
 Ene= 1.77899660759568E-02
 Spin= Alpha
 Occup= 0.000000
  1       0.000000000000
  2       0.000000000000
  3       0.000000000000
  4       0.000000000000
  5       0.000000000000
  6       0.000000000000
  7       0.000000000000
  8       0.000000000000
  9       0.000000000000
 10       0.000000000000
 11       0.000000000000
 12      -0.000000000000
 13       0.038275234801
 14      -0.000000000000
 15       0.000000000000
 16      -0.135018731473
 17       0.000000000000
 18      -0.000000000000
 19      -0.089886441214
 20      -0.000000000000
 21       0.000000000000
 22       0.398489095070
 23       0.000000000000
 24       0.000000000000
 25      -0.365201408906
 26      -0.000000000000
 27      -0.000000000000
 28       1.117833395689
 29       0.000000000000
 30       0.000000000000
 31      -0.000000000000
 32       0.000000000000
 33      -0.000000000000
 34      -0.000000000000
 35      -0.000000000000
 36       0.000000000000
 37      -0.000000000000
 38       0.000000000000
 39       0.000000000000
 40       0.000000000000
 41      -0.000000000000
 42      -0.000000000000
 43      -0.000000000000
 44       0.000000000000
 45       0.000000000000
 46       0.000000000000
 47       0.000000000000
 48       0.000000000000
 49      -0.000000000000
 50       0.000000000000
 51      -0.000000000000
 52       0.000000000000
 53      -0.000000000000
 54       0.000000000000
 55       0.000000000000
 56      -0.000000000000
 Sym=     1a
 Ene= 1.77899660759577E-02
 Spin= Alpha
 Occup= 0.000000
  1       0.000000000000
  2       0.000000000000
  3       0.000000000000
  4       0.000000000000
  5       0.000000000000
  6       0.000000000000
  7       0.000000000000
  8       0.000000000000
  9       0.000000000000
 10       0.000000000000
 11       0.000000000000
 12       0.038275234801
 13      -0.000000000000
 14       0.000000000000
 15      -0.135018731473
 16      -0.000000000000
 17      -0.000000000000
 18      -0.089886441214
 19       0.000000000000
 20       0.000000000000
 21       0.398489095070
 22      -0.000000000000
 23      -0.000000000000
 24      -0.365201408906
 25      -0.000000000000
 26       0.000000000000
 27       1.117833395689
 28      -0.000000000000
 29      -0.000000000000
 30       0.000000000000
 31       0.000000000000
 32      -0.000000000000
 33      -0.000000000000
 34       0.000000000000
 35      -0.000000000000
 36      -0.000000000000
 37      -0.000000000000
 38      -0.000000000000
 39      -0.000000000000
 40       0.000000000000
 41       0.000000000000
 42      -0.000000000000
 43       0.000000000000
 44       0.000000000000
 45       0.000000000000
 46       0.000000000000
 47      -0.000000000000
 48      -0.000000000000
 49       0.000000000000
 50       0.000000000000
 51       0.000000000000
 52       0.000000000000
 53       0.000000000000
 54       0.000000000000
 55       0.000000000000
 56       0.000000000000
 Sym=     1a
 Ene= 1.77899660759591E-02
 Spin= Alpha
 Occup= 0.000000
  1       0.000000000000
  2       0.000000000000
  3       0.000000000000
  4       0.000000000000
  5       0.000000000000
  6       0.000000000000
  7       0.000000000000
  8       0.000000000000
  9       0.000000000000
 10       0.000000000000
 11       0.000000000000
 12      -0.000000000000
 13       0.000000000000
 14       0.038275234801
 15      -0.000000000000
 16      -0.000000000000
 17      -0.135018731473
 18       0.000000000000
 19       0.000000000000
 20      -0.089886441214
 21      -0.000000000000
 22      -0.000000000000
 23       0.398489095070
 24       0.000000000000
 25      -0.000000000000
 26      -0.365201408906
 27      -0.000000000000
 28      -0.000000000000
 29       1.117833395689
 30       0.000000000000
 31      -0.000000000000
 32      -0.000000000000
 33      -0.000000000000
 34       0.000000000000
 35      -0.000000000000
 36       0.000000000000
 37       0.000000000000
 38       0.000000000000
 39       0.000000000000
 40       0.000000000000
 41       0.000000000000
 42      -0.000000000000
 43      -0.000000000000
 44       0.000000000000
 45      -0.000000000000
 46       0.000000000000
 47      -0.000000000000
 48       0.000000000000
 49      -0.000000000000
 50      -0.000000000000
 51       0.000000000000
 52       0.000000000000
 53       0.000000000000
 54       0.000000000000
 55      -0.000000000000
 56       0.000000000000
 Sym=     1a
 Ene= 6.68515723247135E-02
 Spin= Alpha
 Occup= 0.000000
  1       0.011791444594
  2      -0.007730247854
  3       0.000875281115
  4      -0.049134748307
  5      -0.021822634732
  6      -0.077566197802
  7       0.301172292565
  8      -0.094154741953
  9       1.739628805213
 10      -4.539706048374
 11       3.097178960854
 12       0.000000000000
 13       0.000000000000
 14       0.000000000000
 15      -0.000000000000
 16      -0.000000000000
 17      -0.000000000000
 18       0.000000000000
 19       0.000000000000
 20       0.000000000000
 21       0.000000000000
 22       0.000000000000
 23       0.000000000000
 24      -0.000000000000
 25      -0.000000000000
 26      -0.000000000000
 27       0.000000000000
 28      -0.000000000000
 29       0.000000000000
 30      -0.000000000000
 31      -0.000000000000
 32       0.000000000000
 33      -0.000000000000
 34      -0.000000000000
 35      -0.000000000000
 36       0.000000000000
 37      -0.000000000000
 38      -0.000000000000
 39       0.000000000000
 40      -0.000000000000
 41       0.000000000000
 42      -0.000000000000
 43      -0.000000000000
 44      -0.000000000000
 45      -0.000000000000
 46      -0.000000000000
 47       0.000000000000
 48      -0.000000000000
 49       0.000000000000
 50      -0.000000000000
 51      -0.000000000000
 52       0.000000000000
 53       0.000000000000
 54       0.000000000000
 55       0.000000000000
 56       0.000000000000
 Sym=     1a
 Ene= 9.27727276289183E-02
 Spin= Alpha
 Occup= 0.000000
  1       0.000000000000
  2       0.000000000000
  3       0.000000000000
  4       0.000000000000
  5       0.000000000000
  6       0.000000000000
  7       0.000000000000
  8       0.000000000000
  9       0.000000000000
 10       0.000000000000
 11       0.000000000000
 12       0.057978354149
 13      -0.000000000000
 14      -0.000000000000
 15      -0.221177317740
 16      -0.000000000000
 17       0.000000000000
 18       0.224945440489
 19       0.000000000000
 20      -0.000000000000
 21      -0.773593743608
 22      -0.000000000000
 23       0.000000000000
 24       2.734307080206
 25      -0.000000000000
 26      -0.000000000000
 27      -1.983610939279
 28      -0.000000000000
 29       0.000000000000
 30       0.000000000000
 31      -0.000000000000
 32       0.000000000000
 33      -0.000000000000
 34      -0.000000000000
 35      -0.000000000000
 36       0.000000000000
 37       0.000000000000
 38       0.000000000000
 39       0.000000000000
 40       0.000000000000
 41      -0.000000000000
 42      -0.000000000000
 43      -0.000000000000
 44      -0.000000000000
 45      -0.000000000000
 46      -0.000000000000
 47       0.000000000000
 48       0.000000000000
 49      -0.000000000000
 50      -0.000000000000
 51       0.000000000000
 52       0.000000000000
 53      -0.000000000000
 54      -0.000000000000
 55       0.000000000001
 56       0.000000000000
 Sym=     1a
 Ene= 9.27727276289316E-02
 Spin= Alpha
 Occup= 0.000000
  1       0.000000000000
  2       0.000000000000
  3       0.000000000000
  4       0.000000000000
  5       0.000000000000
  6       0.000000000000
  7       0.000000000000
  8       0.000000000000
  9       0.000000000000
 10       0.000000000000
 11       0.000000000000
 12      -0.000000000000
 13      -0.057978354149
 14      -0.000000000000
 15       0.000000000000
 16       0.221177317740
 17      -0.000000000000
 18      -0.000000000000
 19      -0.224945440489
 20      -0.000000000000
 21       0.000000000000
 22       0.773593743608
 23       0.000000000000
 24      -0.000000000000
 25      -2.734307080206
 26      -0.000000000000
 27       0.000000000000
 28       1.983610939279
 29       0.000000000000
 30      -0.000000000000
 31      -0.000000000000
 32       0.000000000000
 33      -0.000000000000
 34       0.000000000000
 35       0.000000000000
 36      -0.000000000000
 37      -0.000000000000
 38       0.000000000000
 39      -0.000000000000
 40      -0.000000000000
 41       0.000000000000
 42      -0.000000000000
 43      -0.000000000000
 44       0.000000000000
 45       0.000000000000
 46      -0.000000000000
 47      -0.000000000000
 48       0.000000000000
 49      -0.000000000000
 50      -0.000000000000
 51      -0.000000000000
 52      -0.000000000000
 53       0.000000000000
 54       0.000000000000
 55       0.000000000000
 56       0.000000000001
 Sym=     1a
 Ene= 9.27727276289437E-02
 Spin= Alpha
 Occup= 0.000000
  1       0.000000000000
  2       0.000000000000
  3       0.000000000000
  4       0.000000000000
  5       0.000000000000
  6       0.000000000000
  7       0.000000000000
  8       0.000000000000
  9       0.000000000000
 10       0.000000000000
 11       0.000000000000
 12      -0.000000000000
 13      -0.000000000000
 14      -0.057978354149
 15      -0.000000000000
 16       0.000000000000
 17       0.221177317740
 18       0.000000000000
 19      -0.000000000000
 20      -0.224945440489
 21      -0.000000000000
 22       0.000000000000
 23       0.773593743608
 24       0.000000000000
 25       0.000000000000
 26      -2.734307080206
 27      -0.000000000000
 28       0.000000000000
 29       1.983610939279
 30       0.000000000000
 31       0.000000000000
 32      -0.000000000000
 33       0.000000000000
 34      -0.000000000000
 35      -0.000000000000
 36       0.000000000000
 37       0.000000000000
 38      -0.000000000000
 39       0.000000000000
 40      -0.000000000000
 41       0.000000000000
 42      -0.000000000000
 43      -0.000000000000
 44      -0.000000000000
 45      -0.000000000000
 46       0.000000000000
 47       0.000000000000
 48       0.000000000000
 49      -0.000000000000
 50       0.000000000001
 51       0.000000000000
 52      -0.000000000000
 53      -0.000000000000
 54      -0.000000000000
 55       0.000000000000
 56       0.000000000000
 Sym=     1a
 Ene= 9.70794169647629E-02
 Spin= Alpha
 Occup= 0.000000
  1      -0.000000000000
  2       0.000000000000
  3       0.000000000000
  4       0.000000000000
  5       0.000000000000
  6       0.000000000000
  7      -0.000000000000
  8       0.000000000000
  9      -0.000000000000
 10       0.000000000001
 11      -0.000000000000
 12      -0.000000000000
 13      -0.000000000000
 14      -0.000000000000
 15       0.000000000000
 16      -0.000000000000
 17       0.000000000000
 18      -0.000000000000
 19       0.000000000000
 20      -0.000000000000
 21       0.000000000000
 22       0.000000000000
 23       0.000000000000
 24      -0.000000000000
 25       0.000000000000
 26      -0.000000000000
 27       0.000000000000
 28      -0.000000000000
 29      -0.000000000000
 30       0.060355862966
 31       0.000000000000
 32      -0.000000000000
 33      -0.099165944068
 34      -0.000000000000
 35       0.086198334121
 36      -0.000000000000
 37       0.000000000000
 38      -0.141625664189
 39      -0.000000000000
 40       0.069892042931
 41      -0.000000000000
 42      -0.000000000000
 43      -0.114834087021
 44       0.000000000000
 45       0.444562082608
 46       0.000000000000
 47      -0.000000000000
 48      -0.730424791434
 49      -0.000000000000
 50       0.000000000000
 51       0.000000000000
 52      -0.000000000000
 53       0.000000000000
 54       0.000000000000
 55       0.000000000000
 56       0.000000000000
 Sym=     1a
 Ene= 9.70794169647639E-02
 Spin= Alpha
 Occup= 0.000000
  1      -0.000000000000
  2       0.000000000000
  3       0.000000000000
  4       0.000000000000
  5       0.000000000000
  6       0.000000000000
  7      -0.000000000000
  8      -0.000000000000
  9      -0.000000000000
 10       0.000000000001
 11      -0.000000000001
 12       0.000000000000
 13       0.000000000000
 14       0.000000000000
 15      -0.000000000000
 16      -0.000000000000
 17      -0.000000000000
 18       0.000000000000
 19       0.000000000000
 20       0.000000000000
 21       0.000000000000
 22       0.000000000000
 23       0.000000000000
 24      -0.000000000000
 25      -0.000000000000
 26      -0.000000000000
 27       0.000000000000
 28      -0.000000000000
 29       0.000000000000
 30      -0.099165944068
 31      -0.000000000000
 32       0.000000000000
 33      -0.060355862966
 34      -0.000000000000
 35      -0.141625664189
 36       0.000000000000
 37      -0.000000000000
 38      -0.086198334121