[Molden Format]
[Title]
 Molden file created by orca_2mkl for BaseName=mol

[Atoms] AU
Cr   1  24          0.0000000000         0.0000000000         0.0000000000 
[GTO]
  1 0
s  11 1.0 
  3637838.6820000000         0.5448947112
   544864.4610000000         1.0198093963
   123997.5507900000         1.7668453382
    35116.7331660000         2.8927871686
    11455.7022980000         4.5208712570
     4135.9906712000         6.7478470229
     1613.2513581000         9.4951958589
      668.7793238000        12.1582718988
      291.0136515500        13.1606581174
      131.5732816700        10.3950824904
       60.9245679280         4.4866457808
s   4 1.0 
     1196.2899601000         1.1140897389
      369.7694759200         4.5270165139
      141.5442608400        10.0034318401
       60.9992287650         9.7729758135
s   1 1.0 
       27.5991133580         8.5818602869
s   1 1.0 
       12.8821120560         4.8461895487
s   1 1.0 
        6.1247513721         2.7747664833
s   1 1.0 
        2.6332895309         1.4732757879
s   1 1.0 
        1.2708482289         0.8530615319
s   1 1.0 
        0.5648357592         0.4643567148
s   1 1.0 
        0.1259680894         0.1506973096
s   1 1.0 
        0.0620456073         0.0886019687
s   1 1.0 
        0.0281443127         0.0489725905
p   9 1.0 
     6395.8781792000        14.7832824110
     1515.1701574000        21.4487903155
      491.7053868100        29.1736708370
      187.2841667500        35.6748327083
       78.8003464440        37.5041045049
       35.3962916930        31.0626497419
       16.5092788790        18.0919371159
        7.8947396863         5.8631267558
        3.7136414465         0.6474967684
p   5 1.0 
       51.2593125340        -0.9236441899
       17.9349325230        -1.1807879077
        3.5257174218         1.5631529407
        1.6339163906         1.2589234364
        0.7385241383         0.3817252745
p   1 1.0 
        0.3075236819         0.3264286696
p   1 1.0 
        0.1350000000         0.1166426287
p   1 1.0 
        0.0590000000         0.0414481454
p   1 1.0 
        0.0260000000         0.0148818449
d   5 1.0 
      118.2498628800        50.7234483987
       35.1939357000        46.9339526269
       13.0578160220        33.4874238049
        5.3485602844        19.1147090896
        2.3004233713         7.6753173273
d   1 1.0 
        0.9811432830         2.7574131651
d   1 1.0 
        0.4033418321         0.5819669212
d   1 1.0 
        0.1513558955         0.1047053642
d   1 1.0 
        0.0600000000         0.0207364673
f   1 1.0 
        3.7330000000       110.4410575232
f   1 1.0 
        1.1470000000         7.7627887803
f   1 1.0 
        0.3660000000         0.5940630236
g   1 1.0 
        1.3820000000        16.0275287976

[5D]
[9G]
[MO]
 Sym=     1a
 Ene= -2.20387689839799E+02
 Spin= Alpha
 Occup= 1.000000
  1       0.955837716689
  2      -0.000400300026
  3       0.065950410063
  4      -0.000681719237
  5       0.001724918834
  6      -0.000817462119
  7       0.000379847970
  8      -0.000152058861
  9       0.000057993426
 10      -0.000045950243
 11       0.000014012445
 12      -0.000000000000
 13      -0.000000000000
 14      -0.000000000000
 15      -0.000000000000
 16      -0.000000000000
 17      -0.000000000000
 18       0.000000000000
 19      -0.000000000000
 20       0.000000000000
 21      -0.000000000000
 22       0.000000000000
 23      -0.000000000000
 24       0.000000000000
 25      -0.000000000000
 26       0.000000000000
 27      -0.000000000000
 28      -0.000000000000
 29      -0.000000000000
 30      -0.000000000000
 31       0.000000000000
 32      -0.000000000000
 33      -0.000000000000
 34      -0.000000000000
 35       0.000000000000
 36      -0.000000000000
 37       0.000000000000
 38       0.000000000000
 39      -0.000000000000
 40      -0.000000000000
 41       0.000000000000
 42       0.000000000000
 43      -0.000000000000
 44       0.000000000000
 45      -0.000000000000
 46      -0.000000000000
 47      -0.000000000000
 48       0.000000000000
 49      -0.000000000000
 50       0.000000000000
 51       0.000000000000
 52       0.000000000000
 53      -0.000000000000
 54      -0.000000000000
 55      -0.000000000000
 56      -0.000000000000
 57      -0.000000000000
 58       0.000000000000
 59       0.000000000000
 60       0.000000000000
 61      -0.000000000000
 62      -0.000000000000
 63      -0.000000000000
 64       0.000000000000
 65      -0.000000000000
 66      -0.000000000000
 67       0.000000000000
 68      -0.000000000000
 69       0.000000000000
 70      -0.000000000000
 71       0.000000000000
 72      -0.000000000000
 73       0.000000000000
 74       0.000000000000
 75      -0.000000000000
 76       0.000000000000
 77      -0.000000000000
 78      -0.000000000000
 79      -0.000000000000
 80      -0.000000000000
 81      -0.000000000000
 82      -0.000000000000
 83      -0.000000000000
 84       0.000000000000
 Sym=     1a
 Ene= -2.62593376283195E+01
 Spin= Alpha
 Occup= 1.000000
  1      -0.289099027831
  2      -0.175612136817
  3       0.052023813785
  4       0.519541416512
  5       0.499208935596
  6       0.088295869153
  7      -0.003647887438
  8       0.002919662173
  9      -0.000609970879
 10       0.000498758871
 11      -0.000152075396
 12      -0.000000000000
 13      -0.000000000000
 14      -0.000000000000
 15      -0.000000000000
 16       0.000000000000
 17       0.000000000000
 18       0.000000000000
 19      -0.000000000000
 20      -0.000000000000
 21      -0.000000000000
 22       0.000000000000
 23       0.000000000000
 24       0.000000000000
 25      -0.000000000000
 26      -0.000000000000
 27      -0.000000000000
 28       0.000000000000
 29       0.000000000000
 30      -0.000000000000
 31      -0.000000000000
 32      -0.000000000000
 33      -0.000000000000
 34      -0.000000000000
 35      -0.000000000000
 36      -0.000000000000
 37       0.000000000000
 38       0.000000000000
 39      -0.000000000000
 40       0.000000000000
 41       0.000000000000
 42      -0.000000000000
 43      -0.000000000000
 44       0.000000000000
 45      -0.000000000000
 46      -0.000000000000
 47      -0.000000000000
 48       0.000000000000
 49      -0.000000000000
 50      -0.000000000000
 51       0.000000000000
 52       0.000000000000
 53      -0.000000000000
 54      -0.000000000000
 55      -0.000000000000
 56      -0.000000000000
 57      -0.000000000000
 58       0.000000000000
 59      -0.000000000000
 60      -0.000000000000
 61       0.000000000000
 62       0.000000000000
 63       0.000000000000
 64      -0.000000000000
 65       0.000000000000
 66       0.000000000000
 67      -0.000000000000
 68      -0.000000000000
 69      -0.000000000000
 70      -0.000000000000
 71      -0.000000000000
 72      -0.000000000000
 73       0.000000000000
 74      -0.000000000000
 75       0.000000000000
 76       0.000000000003
 77       0.000000000000
 78      -0.000000000000
 79      -0.000000000000
 80      -0.000000000000
 81      -0.000000000000
 82      -0.000000000000
 83      -0.000000000003
 84       0.000000000000
 Sym=     1a
 Ene= -2.21887162604154E+01
 Spin= Alpha
 Occup= 1.000000
  1      -0.000000000000
  2       0.000000000000
  3       0.000000000000
  4      -0.000000000000
  5      -0.000000000000
  6       0.000000000000
  7       0.000000000000
  8      -0.000000000000
  9       0.000000000000
 10       0.000000000000
 11       0.000000000000
 12       0.000000000000
 13       0.000000000000
 14       0.997072122997
 15      -0.000000000000
 16       0.000000000000
 17       0.008659843523
 18      -0.000000000000
 19      -0.000000000000
 20      -0.002292697214
 21      -0.000000000000
 22      -0.000000000000
 23       0.001908977856
 24       0.000000000000
 25       0.000000000000
 26      -0.001024482148
 27       0.000000000000
 28       0.000000000000
 29       0.000332152771
 30       0.000000000000
 31      -0.000000000000
 32       0.000000000000
 33      -0.000000000000
 34       0.000000000000
 35      -0.000000000000
 36       0.000000000000
 37       0.000000000000
 38      -0.000000000000
 39       0.000000000000
 40       0.000000000000
 41      -0.000000000000
 42       0.000000000000
 43      -0.000000000000
 44       0.000000000000
 45       0.000000000000
 46      -0.000000000000
 47      -0.000000000000
 48       0.000000000000
 49       0.000000000000
 50      -0.000000000000
 51       0.000000000000
 52      -0.000000000000
 53      -0.000000000000
 54       0.000000000000
 55       0.000000000016
 56       0.000000000000
 57       0.000000000000
 58      -0.000000000000
 59       0.000000000000
 60       0.000000000000
 61      -0.000000000000
 62       0.000000000003
 63      -0.000000000000
 64      -0.000000000000
 65       0.000000000000
 66      -0.000000000000
 67      -0.000000000000
 68       0.000000000000
 69      -0.000000000001
 70      -0.000000000000
 71      -0.000000000000
 72       0.000000000000
 73      -0.000000000000
 74      -0.000000000000
 75      -0.000000000000
 76       0.000000000000
 77      -0.000000000000
 78       0.000000000000
 79       0.000000000000
 80       0.000000000000
 81      -0.000000000000
 82       0.000000000000
 83      -0.000000000000
 84       0.000000000000
 Sym=     1a
 Ene= -2.21887162604154E+01
 Spin= Alpha
 Occup= 1.000000
  1      -0.000000000000
  2       0.000000000000
  3       0.000000000000
  4      -0.000000000000
  5      -0.000000000000
  6      -0.000000000000
  7       0.000000000000
  8      -0.000000000000
  9      -0.000000000000
 10       0.000000000000
 11      -0.000000000000
 12       0.000000000000
 13       0.997072122997
 14       0.000000000000
 15       0.000000000000
 16       0.008659843523
 17       0.000000000000
 18       0.000000000000
 19      -0.002292697214
 20       0.000000000000
 21      -0.000000000000
 22       0.001908977856
 23      -0.000000000000
 24      -0.000000000000
 25      -0.001024482148
 26       0.000000000000
 27      -0.000000000000
 28       0.000332152771
 29      -0.000000000000
 30       0.000000000000
 31       0.000000000000
 32       0.000000000000
 33       0.000000000000
 34       0.000000000000
 35      -0.000000000000
 36      -0.000000000000
 37      -0.000000000000
 38      -0.000000000000
 39      -0.000000000000
 40       0.000000000000
 41       0.000000000000
 42       0.000000000000
 43       0.000000000000
 44       0.000000000000
 45      -0.000000000000
 46      -0.000000000000
 47      -0.000000000000
 48      -0.000000000000
 49       0.000000000000
 50       0.000000000000
 51       0.000000000000
 52      -0.000000000000
 53       0.000000000000
 54      -0.000000000000
 55       0.000000000000
 56       0.000000000000
 57      -0.000000000010
 58      -0.000000000000
 59       0.000000000000
 60      -0.000000000000
 61       0.000000000013
 62       0.000000000000
 63      -0.000000000000
 64      -0.000000000002
 65       0.000000000000
 66      -0.000000000000
 67      -0.000000000000
 68       0.000000000002
 69       0.000000000000
 70      -0.000000000000
 71       0.000000000000
 72       0.000000000000
 73      -0.000000000000
 74      -0.000000000000
 75      -0.000000000001
 76      -0.000000000000
 77       0.000000000000
 78      -0.000000000000
 79      -0.000000000000
 80       0.000000000000
 81      -0.000000000000
 82       0.000000000000
 83      -0.000000000000
 84       0.000000000000
 Sym=     1a
 Ene= -2.21887162604154E+01
 Spin= Alpha
 Occup= 1.000000
  1       0.000000000000
  2      -0.000000000000
  3      -0.000000000000
  4       0.000000000000
  5       0.000000000000
  6      -0.000000000000
  7      -0.000000000000
  8       0.000000000000
  9       0.000000000000
 10       0.000000000000
 11      -0.000000000000
 12      -0.997072122997
 13      -0.000000000000
 14      -0.000000000000
 15      -0.008659843523
 16      -0.000000000000
 17       0.000000000000
 18       0.002292697214
 19      -0.000000000000
 20       0.000000000000
 21      -0.001908977856
 22       0.000000000000
 23       0.000000000000
 24       0.001024482148
 25       0.000000000000
 26      -0.000000000000
 27      -0.000332152771
 28      -0.000000000000
 29      -0.000000000000
 30      -0.000000000000
 31      -0.000000000000
 32      -0.000000000000
 33      -0.000000000000
 34       0.000000000000
 35       0.000000000000
 36       0.000000000000
 37       0.000000000000
 38       0.000000000000
 39       0.000000000000
 40      -0.000000000000
 41      -0.000000000000
 42      -0.000000000000
 43      -0.000000000000
 44      -0.000000000000
 45       0.000000000000
 46       0.000000000000
 47       0.000000000000
 48       0.000000000000
 49       0.000000000000
 50      -0.000000000000
 51      -0.000000000000
 52       0.000000000000
 53      -0.000000000000
 54       0.000000000000
 55       0.000000000000
 56       0.000000000010
 57       0.000000000000
 58      -0.000000000000
 59      -0.000000000000
 60       0.000000000013
 61       0.000000000000
 62      -0.000000000000
 63       0.000000000002
 64      -0.000000000000
 65       0.000000000000
 66       0.000000000000
 67       0.000000000002
 68      -0.000000000000
 69       0.000000000000
 70      -0.000000000000
 71       0.000000000000
 72       0.000000000000
 73      -0.000000000000
 74      -0.000000000001
 75       0.000000000000
 76       0.000000000000
 77       0.000000000000
 78       0.000000000000
 79      -0.000000000000
 80       0.000000000000
 81       0.000000000000
 82      -0.000000000000
 83       0.000000000000
 84       0.000000000000
 Sym=     1a
 Ene= -3.45854011828243E+00
 Spin= Alpha
 Occup= 1.000000
  1       0.104736307296
  2       0.074777803075
  3      -0.020289690352
  4      -0.300695248578
  5      -0.446513646887
  6       0.128291484891
  7       0.700836493703
  8       0.414639480626
  9       0.028157792066
 10      -0.014166698133
 11       0.003742779630
 12       0.000000000000
 13       0.000000000000
 14      -0.000000000000
 15       0.000000000000
 16       0.000000000000
 17       0.000000000000
 18      -0.000000000000
 19       0.000000000000
 20      -0.000000000000
 21       0.000000000000
 22       0.000000000000
 23       0.000000000000
 24      -0.000000000000
 25       0.000000000000
 26      -0.000000000000
 27       0.000000000000
 28       0.000000000000
 29       0.000000000000
 30       0.000000000000
 31      -0.000000000000
 32       0.000000000000
 33      -0.000000000000
 34       0.000000000000
 35       0.000000000000
 36      -0.000000000000
 37      -0.000000000000
 38      -0.000000000000
 39      -0.000000000000
 40       0.000000000000
 41       0.000000000000
 42      -0.000000000000
 43       0.000000000000
 44       0.000000000000
 45      -0.000000000000
 46       0.000000000000
 47       0.000000000000
 48      -0.000000000000
 49      -0.000000000000
 50       0.000000000000
 51       0.000000000000
 52      -0.000000000000
 53      -0.000000000000
 54      -0.000000000000
 55       0.000000000000
 56      -0.000000000000
 57       0.000000000000
 58       0.000000000000
 59       0.000000000000
 60      -0.000000000000
 61      -0.000000000000
 62      -0.000000000000
 63       0.000000000000
 64      -0.000000000000
 65      -0.000000000000
 66       0.000000000000
 67       0.000000000000
 68       0.000000000000
 69      -0.000000000000
 70       0.000000000000
 71       0.000000000000
 72       0.000000000000
 73      -0.000000000000
 74      -0.000000000000
 75      -0.000000000000
 76       0.000000000039
 77      -0.000000000000
 78       0.000000000000
 79      -0.000000000000
 80       0.000000000000
 81      -0.000000000000
 82      -0.000000000000
 83      -0.000000000033
 84       0.000000000000
 Sym=     1a
 Ene= -2.26149079434981E+00
 Spin= Alpha
 Occup= 1.000000
  1       0.000000000000
  2      -0.000000000000
  3      -0.000000000000
  4       0.000000000000
  5       0.000000000000
  6      -0.000000000000
  7       0.000000000000
  8      -0.000000000000
  9      -0.000000000000
 10       0.000000000000
 11       0.000000000000
 12      -0.000000000000
 13      -0.359529871603
 14      -0.000000000000
 15       0.000000000000
 16       0.993440613157
 17       0.000000000000
 18       0.000000000000
 19       0.110923432079
 20      -0.000000000000
 21      -0.000000000000
 22      -0.005886250241
 23      -0.000000000000
 24       0.000000000000
 25       0.007546543908
 26       0.000000000000
 27      -0.000000000000
 28      -0.002138279112
 29      -0.000000000000
 30       0.000000000000
 31      -0.000000000000
 32       0.000000000000
 33      -0.000000000000
 34       0.000000000000
 35      -0.000000000000
 36       0.000000000000
 37      -0.000000000000
 38      -0.000000000000
 39      -0.000000000000
 40       0.000000000000
 41      -0.000000000000
 42       0.000000000000
 43      -0.000000000000
 44       0.000000000000
 45       0.000000000000
 46       0.000000000000
 47      -0.000000000000
 48       0.000000000000
 49       0.000000000000
 50      -0.000000000000
 51       0.000000000000
 52      -0.000000000000
 53      -0.000000000000
 54      -0.000000000000
 55      -0.000000000000
 56      -0.000000000000
 57      -0.000000000051
 58       0.000000000000
 59       0.000000000000
 60       0.000000000000
 61       0.000000000066
 62       0.000000000000
 63       0.000000000000
 64      -0.000000000081
 65      -0.000000000000
 66      -0.000000000000
 67       0.000000000000
 68       0.000000000104
 69      -0.000000000000
 70      -0.000000000000
 71       0.000000000043
 72      -0.000000000000
 73      -0.000000000000
 74      -0.000000000000
 75      -0.000000000056
 76       0.000000000000
 77       0.000000000000
 78       0.000000000000
 79      -0.000000000000
 80      -0.000000000000
 81      -0.000000000000
 82       0.000000000000
 83      -0.000000000000
 84       0.000000000000
 Sym=     1a
 Ene= -2.26149079434980E+00
 Spin= Alpha
 Occup= 1.000000
  1       0.000000000000
  2      -0.000000000000
  3      -0.000000000000
  4       0.000000000000
  5       0.000000000000
  6      -0.000000000000
  7      -0.000000000000
  8       0.000000000000
  9       0.000000000000
 10      -0.000000000000
 11       0.000000000000
 12      -0.359529871603
 13       0.000000000000
 14      -0.000000000000
 15       0.993440613157
 16       0.000000000000
 17      -0.000000000000
 18       0.110923432079
 19      -0.000000000000
 20       0.000000000000
 21      -0.005886250241
 22      -0.000000000000
 23       0.000000000000
 24       0.007546543908
 25      -0.000000000000
 26      -0.000000000000
 27      -0.002138279112
 28      -0.000000000000
 29      -0.000000000000
 30      -0.000000000000
 31      -0.000000000000
 32       0.000000000000
 33      -0.000000000000
 34      -0.000000000000
 35       0.000000000000
 36       0.000000000000
 37       0.000000000000
 38       0.000000000000
 39      -0.000000000000
 40      -0.000000000000
 41      -0.000000000000
 42      -0.000000000000
 43      -0.000000000000
 44      -0.000000000000
 45       0.000000000000
 46       0.000000000000
 47       0.000000000000
 48       0.000000000000
 49       0.000000000000
 50      -0.000000000000
 51       0.000000000000
 52      -0.000000000000
 53      -0.000000000000
 54      -0.000000000000
 55       0.000000000000
 56      -0.000000000051
 57       0.000000000000
 58       0.000000000000
 59      -0.000000000000
 60      -0.000000000066
 61      -0.000000000000
 62      -0.000000000000
 63      -0.000000000081
 64      -0.000000000000
 65      -0.000000000000
 66       0.000000000000
 67      -0.000000000104
 68      -0.000000000000
 69       0.000000000000
 70       0.000000000043
 71      -0.000000000000
 72       0.000000000000
 73      -0.000000000000
 74       0.000000000056
 75      -0.000000000000
 76      -0.000000000000
 77      -0.000000000000
 78      -0.000000000000
 79      -0.000000000000
 80      -0.000000000000
 81       0.000000000000
 82       0.000000000000
 83       0.000000000000
 84       0.000000000000
 Sym=     1a
 Ene= -2.26149079434974E+00
 Spin= Alpha
 Occup= 1.000000
  1      -0.000000000000
  2      -0.000000000000
  3       0.000000000000
  4       0.000000000000
  5       0.000000000000
  6      -0.000000000000
  7       0.000000000000
  8       0.000000000000
  9      -0.000000000000
 10       0.000000000000
 11       0.000000000000
 12      -0.000000000000
 13      -0.000000000000
 14      -0.359529871603
 15       0.000000000000
 16      -0.000000000000
 17       0.993440613157
 18       0.000000000000
 19       0.000000000000
 20       0.110923432079
 21       0.000000000000
 22       0.000000000000
 23      -0.005886250241
 24      -0.000000000000
 25      -0.000000000000
 26       0.007546543908
 27      -0.000000000000
 28      -0.000000000000
 29      -0.002138279112
 30       0.000000000000
 31       0.000000000000
 32      -0.000000000000
 33      -0.000000000000
 34       0.000000000000
 35       0.000000000000
 36      -0.000000000000
 37      -0.000000000000
 38       0.000000000000
 39       0.000000000000
 40      -0.000000000000
 41      -0.000000000000
 42       0.000000000000
 43      -0.000000000000
 44      -0.000000000000
 45      -0.000000000000
 46       0.000000000000
 47       0.000000000000
 48       0.000000000000
 49       0.000000000000
 50       0.000000000000
 51      -0.000000000000
 52       0.000000000000
 53      -0.000000000000
 54       0.000000000000
 55       0.000000000083
 56      -0.000000000000
 57       0.000000000000
 58       0.000000000000
 59       0.000000000000
 60      -0.000000000000
 61       0.000000000000
 62       0.000000000132
 63       0.000000000000
 64      -0.000000000000
 65      -0.000000000000
 66      -0.000000000000
 67      -0.000000000000
 68      -0.000000000000
 69      -0.000000000071
 70       0.000000000000
 71       0.000000000000
 72       0.000000000000
 73      -0.000000000000
 74       0.000000000000
 75      -0.000000000000
 76      -0.000000000000
 77      -0.000000000000
 78      -0.000000000000
 79      -0.000000000000
 80       0.000000000000
 81       0.000000000000
 82       0.000000000000
 83      -0.000000000000
 84       0.000000000000
 Sym=     1a
 Ene= -3.73398167368364E-01
 Spin= Alpha
 Occup= 1.000000
  1       0.000000000000
  2      -0.000000000000
  3       0.000000000000
  4      -0.000000000000
  5       0.000000000000
  6      -0.000000000000
  7       0.000000000000
  8      -0.000000000000
  9      -0.000000000000
 10       0.000000000000
 11      -0.000000000000
 12       0.000000000000
 13       0.000000000000
 14       0.000000000000
 15       0.000000000000
 16       0.000000000000
 17       0.000000000000
 18       0.000000000000
 19       0.000000000000
 20       0.000000000000
 21      -0.000000000000
 22       0.000000000000
 23      -0.000000000000
 24       0.000000000000
 25      -0.000000000000
 26       0.000000000000
 27      -0.000000000000
 28       0.000000000000
 29       0.000000000000
 30       0.000626639842
 31       0.000000000000
 32      -0.000000000000
 33      -0.460341184151
 34      -0.000000000000
 35       0.000473021820
 36       0.000000000000
 37       0.000000000000
 38      -0.347490552249
 39      -0.000000000000
 40       0.000426667642
 41      -0.000000000000
 42       0.000000000000
 43      -0.313437918553
 44      -0.000000000000
 45       0.000239721258
 46       0.000000000000
 47       0.000000000000
 48      -0.176103656684
 49      -0.000000000000
 50       0.000037662912
 51      -0.000000000000
 52       0.000000000000
 53      -0.027667869890
 54      -0.000000000000
 55      -0.000000000000
 56       0.000000000000
 57       0.000000000000
 58      -0.000000000000
 59       0.000000000000
 60      -0.000000000000
 61       0.000000000000
 62       0.000000000000
 63       0.000000000000
 64      -0.000000000000
 65       0.000000000000
 66      -0.000000000000
 67       0.000000000000
 68       0.000000000000
 69      -0.000000000000
 70      -0.000000000000
 71       0.000000000000
 72       0.000000000000
 73       0.000000000000
 74      -0.000000000000
 75       0.000000000000
 76       0.000000000000
 77       0.000000000000
 78      -0.000000000000
 79       0.000000000030
 80       0.000000000000
 81      -0.000000000000
 82      -0.000000000000
 83       0.000000000000
 84       0.000000000000
 Sym=     1a
 Ene= -3.73398167368172E-01
 Spin= Alpha
 Occup= 1.000000
  1       0.000000000000
  2       0.000000000000
  3       0.000000000000
  4      -0.000000000000
  5       0.000000000000
  6      -0.000000000000
  7       0.000000000000
  8       0.000000000000
  9      -0.000000000001
 10       0.000000000000
 11      -0.000000000000
 12      -0.000000000000
 13       0.000000000000
 14       0.000000000000
 15       0.000000000000
 16       0.000000000000
 17       0.000000000000
 18       0.000000000000
 19       0.000000000000
 20       0.000000000000
 21       0.000000000000
 22      -0.000000000000
 23      -0.000000000000
 24      -0.000000000000
 25       0.000000000000
 26       0.000000000000
 27       0.000000000000
 28      -0.000000000000
 29       0.000000000000
 30       0.460341184151
 31      -0.000000000000
 32       0.000000000000
 33       0.000626639842
 34      -0.000000000000
 35       0.347490552249
 36      -0.000000000000
 37      -0.000000000000
 38       0.000473021820
 39      -0.000000000000
 40       0.313437918553
 41       0.000000000000
 42      -0.000000000000
 43       0.000426667642
 44      -0.000000000000
 45       0.176103656684
 46      -0.000000000000
 47       0.000000000000
 48       0.000239721258
 49      -0.000000000000
 50       0.027667869890
 51       0.000000000000
 52      -0.000000000000
 53       0.000037662912
 54      -0.000000000000
 55       0.000000000000
 56      -0.000000000000
 57       0.000000000000
 58       0.000000000000
 59      -0.000000000000
 60       0.000000000000
 61       0.000000000000
 62      -0.000000000000
 63       0.000000000000
 64      -0.000000000000
 65      -0.000000000000
 66       0.000000000000
 67      -0.000000000000
 68       0.000000000000
 69       0.000000000000
 70       0.000000000000
 71      -0.000000000000
 72       0.000000000000
 73      -0.000000000000
 74       0.000000000000
 75      -0.000000000000
 76       0.000000000019
 77      -0.000000000000
 78      -0.000000000000
 79      -0.000000000000
 80      -0.000000000000
 81      -0.000000000000
 82       0.000000000000
 83       0.000000000023
 84       0.000000000000
 Sym=     1a
 Ene= -3.73398163788151E-01
 Spin= Alpha
 Occup= 1.000000
  1       0.000000000000
  2      -0.000000000000
  3       0.000000000000
  4      -0.000000000000
  5      -0.000000000000
  6       0.000000000000
  7       0.000000000000
  8      -0.000000000000
  9       0.000000000000
 10      -0.000000000000
 11       0.000000000000
 12      -0.000000000000
 13      -0.000000000000
 14      -0.000000000000
 15       0.000000000000
 16      -0.000000000000
 17       0.000000000000
 18      -0.000000000000
 19       0.000000000000
 20      -0.000000000000
 21       0.000000000000
 22       0.000000000000
 23       0.000000000000
 24      -0.000000000000
 25      -0.000000000000
 26      -0.000000000000
 27       0.000000000000
 28       0.000000000000
 29       0.000000000000
 30       0.000000000000
 31       0.460341608550
 32       0.000000000000
 33       0.000000000000
 34      -0.000000000000
 35      -0.000000000000
 36       0.347490872970
 37      -0.000000000000
 38      -0.000000000000
 39       0.000000000000
 40       0.000000000000
 41       0.313438209365
 42      -0.000000000000
 43       0.000000000000
 44       0.000000000000
 45      -0.000000000000
 46       0.176103823185
 47       0.000000000000
 48       0.000000000000
 49      -0.000000000000
 50       0.000000000000
 51       0.027667897865
 52      -0.000000000000
 53      -0.000000000000
 54       0.000000000000
 55       0.000000000000
 56       0.000000000000
 57       0.000000000000
 58      -0.000000000000
 59       0.000000000000
 60       0.000000000000
 61      -0.000000000000
 62      -0.000000000000
 63       0.000000000000
 64       0.000000000000
 65       0.000000000000
 66       0.000000000000
 67       0.000000000000
 68       0.000000000000
 69      -0.000000000000
 70      -0.000000000000
 71      -0.000000000000
 72      -0.000000000000
 73      -0.000000000000
 74       0.000000000000
 75      -0.000000000000
 76      -0.000000000000
 77       0.000000000005
 78       0.000000000000
 79      -0.000000000000
 80       0.000000000000
 81      -0.000000000014
 82      -0.000000000000
 83       0.000000000000
 84       0.000000000000
 Sym=     1a
 Ene= -3.73398163788146E-01
 Spin= Alpha
 Occup= 1.000000
  1      -0.000000000000
  2      -0.000000000000
  3      -0.000000000000
  4      -0.000000000000
  5      -0.000000000000
  6      -0.000000000000
  7      -0.000000000000
  8      -0.000000000000
  9      -0.000000000000
 10      -0.000000000000
 11      -0.000000000000
 12      -0.000000000000
 13      -0.000000000000
 14      -0.000000000000
 15       0.000000000000
 16       0.000000000000
 17      -0.000000000000
 18      -0.000000000000
 19       0.000000000000
 20      -0.000000000000
 21      -0.000000000000
 22      -0.000000000000
 23       0.000000000000
 24      -0.000000000000
 25       0.000000000000
 26       0.000000000000
 27       0.000000000000
 28      -0.000000000000
 29       0.000000000000
 30       0.000000000000
 31      -0.000000000000
 32      -0.000000000000
 33       0.000000000000
 34       0.460341608550
 35      -0.000000000000
 36       0.000000000000
 37      -0.000000000000
 38      -0.000000000000
 39       0.347490872970
 40       0.000000000000
 41      -0.000000000000
 42      -0.000000000000
 43       0.000000000000