[Molden Format]
[Title]
 Molden file created by orca_2mkl for BaseName=mol_job2

[Atoms] AU
B    1   5          0.0000000000         0.0000000000         0.0000000000 
[GTO]
  1 0
s   8 1.0 
    46447.6670560000         0.1606515815
     6957.6889042000         0.3006486321
     1583.4428403000         0.5194566708
      448.4660100900         0.8440012200
      146.2863926200         1.2873788277
       52.7843860840         1.8032070283
       20.5193961700         2.1831151925
        8.4185659258         2.0862074964
s   2 1.0 
       36.5100183120         0.9826224617
       10.5418540050         3.8673377084
s   1 1.0 
        3.6004091387         1.8628332613
s   1 1.0 
        1.5617023749         0.9956548080
s   1 1.0 
        0.4499737078         0.3915619170
s   1 1.0 
        0.1807523024         0.1975708966
s   1 1.0 
        0.0715966963         0.0986460794
p   5 1.0 
       72.2404627600         0.7110832529
       16.8077072080         0.9129911998
        5.2259410747         0.9549325132
        1.8508350671         0.8786667718
        0.7220678266         0.6794554600
p   1 1.0 
        0.2949101806         0.3097792288
p   1 1.0 
        0.1220114184         0.1027875898
p   1 1.0 
        0.0498653936         0.0335883873
d   1 1.0 
        1.1100000000         3.4220416922
d   1 1.0 
        0.4020000000         0.5785830099
d   1 1.0 
        0.1450000000         0.0971323928
f   1 1.0 
        0.8820000000         4.2983759315
f   1 1.0 
        0.3110000000         0.4118233381
g   1 1.0 
        0.6730000000         2.2156995737

[5D]
[9G]
[MO]
 Sym=     1a
 Ene= -7.67609942564300E+00
 Spin= Alpha
 Occup= 2.000000
  1      -0.541548307227
  2       0.000273409754
  3      -0.376163693499
  4      -0.182156343950
  5      -0.006712953819
  6       0.010803686002
  7       0.002750003928
  8       0.000000000000
  9      -0.000000000000
 10       0.000000000000
 11      -0.000000000000
 12      -0.000000000000
 13       0.000000000000
 14       0.000000000000
 15       0.000000000000
 16      -0.000000000000
 17      -0.000000000000
 18       0.000000000000
 19      -0.000000000000
 20      -0.000039202362
 21       0.000005934178
 22      -0.000046416519
 23      -0.000078740998
 24      -0.000020468026
 25       0.000216531103
 26      -0.000032776957
 27       0.000256377925
 28       0.000434919594
 29       0.000113053503
 30      -0.000030245897
 31       0.000004578411
 32      -0.000035811854
 33      -0.000060751241
 34      -0.000015791748
 35      -0.000000000000
 36      -0.000000000000
 37       0.000000000000
 38      -0.000000000000
 39      -0.000000000000
 40       0.000000000000
 41      -0.000000000000
 42      -0.000000000000
 43      -0.000000000000
 44       0.000000000000
 45      -0.000000000000
 46      -0.000000000000
 47       0.000000000000
 48      -0.000000000000
 49      -0.000000099869
 50       0.000000057473
 51      -0.000000449547
 52      -0.000000203552
 53      -0.000000052912
 54      -0.000000167241
 55       0.000000416937
 56       0.000000482367
 57       0.000000268947
 Sym=     1a
 Ene= -4.67016080252561E-01
 Spin= Alpha
 Occup= 1.878141
  1      -0.103613727540
  2      -0.014055354335
  3      -0.133974004568
  4      -0.098933697640
  5       0.296071876296
  6       0.598669582810
  7       0.244258790031
  8      -0.000000000000
  9       0.000000000000
 10      -0.000000000000
 11      -0.000000000000
 12       0.000000000000
 13      -0.000000000000
 14      -0.000000000000
 15       0.000000000000
 16      -0.000000000000
 17      -0.000000000000
 18       0.000000000000
 19      -0.000000000000
 20       0.000156946686
 21      -0.000023757487
 22       0.000185828573
 23       0.000315239650
 24       0.000081943760
 25       0.002408900425
 26      -0.000364642424
 27       0.002852194837
 28       0.004838464228
 29       0.001257715995
 30       0.000151478808
 31      -0.000022929798
 32       0.000179354476
 33       0.000304256990
 34       0.000079088914
 35      -0.000000000000
 36      -0.000000000000
 37      -0.000000000000
 38      -0.000000000000
 39      -0.000000000000
 40       0.000000000000
 41       0.000000000000
 42      -0.000000000000
 43      -0.000000000000
 44       0.000000000000
 45      -0.000000000000
 46      -0.000000000000
 47       0.000000000000
 48      -0.000000000000
 49      -0.000022968021
 50       0.000013217651
 51      -0.000103387080
 52      -0.000046813069
 53      -0.000012168643
 54      -0.000038462068
 55       0.000095887273
 56       0.000110935051
 57       0.000061852509
 Sym=     1a
 Ene= -7.25801724719033E-02
 Spin= Alpha
 Occup= 0.987929
  1      -0.000000000000
  2      -0.000000000000
  3      -0.000000000000
  4      -0.000000000000
  5       0.000000000000
  6       0.000000000000
  7      -0.000000000000
  8       0.037772117150
  9      -0.295449542766
 10       0.085658000664
 11       0.047535208002
 12      -0.371815416479
 13       0.107798322832
 14       0.045843094839
 15      -0.358579884606
 16       0.103961020572
 17       0.014344102812
 18      -0.112198069289
 19       0.032528946241
 20      -0.000000000000
 21       0.000000000000
 22      -0.000000000000
 23      -0.000000000000
 24      -0.000000000000
 25      -0.000000000000
 26       0.000000000000
 27      -0.000000000000
 28      -0.000000000000
 29      -0.000000000000
 30      -0.000000000000
 31      -0.000000000000
 32      -0.000000000000
 33      -0.000000000000
 34       0.000000000000
 35      -0.000119419406
 36      -0.000015225732
 37       0.000119094081
 38      -0.000157918140
 39      -0.000041049424
 40       0.000086231410
 41      -0.000214977904
 42      -0.000745311186
 43      -0.000095025665
 44       0.000743280792
 45      -0.000985586511
 46      -0.000256194499
 47       0.000538180827
 48      -0.001341703509
 49      -0.000000000000
 50      -0.000000000000
 51       0.000000000000
 52       0.000000000000
 53       0.000000000000
 54       0.000000000000
 55      -0.000000000000
 56      -0.000000000000
 57      -0.000000000000
 Sym=     1a
 Ene= 1.31091149907762E-01
 Spin= Alpha
 Occup= 0.054278
  1      -0.000000000000
  2      -0.000000000000
  3      -0.000000000000
  4      -0.000000000000
  5       0.000000000000
  6      -0.000000000000
  7      -0.000000000000
  8       0.038682210956
  9       0.089795336878
 10       0.292662471982
 11       0.074866138236
 12       0.173791257986
 13       0.566423390561
 14       0.025394934133
 15       0.058950784071
 16       0.192133386781
 17       0.002599961512
 18       0.006035446632
 19       0.019670829157
 20       0.000000000000
 21       0.000000000000
 22      -0.000000000000
 23       0.000000000000
 24      -0.000000000000
 25       0.000000000000
 26       0.000000000000
 27      -0.000000000000
 28       0.000000000000
 29       0.000000000000
 30       0.000000000000
 31       0.000000000000
 32      -0.000000000000
 33       0.000000000000
 34       0.000000000000
 35      -0.002764473538
 36       0.000465898960
 37      -0.005157280746
 38      -0.004176717337
 39      -0.001624557542
 40       0.000331373682
 41       0.002156863191
 42      -0.006293506449
 43       0.001060649728
 44      -0.011740889970
 45      -0.009508572657
 46      -0.003698412455
 47       0.000754394055
 48       0.004910241396
 49      -0.000000000000
 50      -0.000000000000
 51       0.000000000000
 52      -0.000000000000
 53       0.000000000000
 54      -0.000000000000
 55      -0.000000000000
 56      -0.000000000000
 57      -0.000000000000
 Sym=     1a
 Ene= 1.31091149907763E-01
 Spin= Alpha
 Occup= 0.054278
  1       0.000000000000
  2       0.000000000000
  3       0.000000000000
  4       0.000000000000
  5      -0.000000000000
  6       0.000000000000
  7       0.000000000000
  8      -0.303809681870
  9      -0.024977016827
 10       0.047819078920
 11      -0.587997869780
 12      -0.048340897490
 13       0.092549771182
 14      -0.199451548124
 15      -0.016397451993
 16       0.031393302747
 17      -0.020420070629
 18      -0.001678789315
 19       0.003214081141
 20       0.000000000000
 21      -0.000000000000
 22      -0.000000000000
 23      -0.000000000000
 24       0.000000000000
 25       0.000000000000
 26      -0.000000000000
 27      -0.000000000000
 28      -0.000000000000
 29       0.000000000000
 30       0.000000000000
 31      -0.000000000000
 32      -0.000000000000
 33      -0.000000000000
 34       0.000000000000
 35      -0.000451696377
 36       0.001272076585
 37      -0.000689767015
 38      -0.001506890396
 39       0.002906210189
 40      -0.006422329196
 41      -0.002245410232
 42      -0.001028316612
 43       0.002895966295
 44      -0.001570300131
 45      -0.003430535434
 46       0.006616179290
 47      -0.014620856253
 48      -0.005111824577
 49       0.000000000000
 50      -0.000000000000
 51       0.000000000000
 52       0.000000000000
 53      -0.000000000000
 54      -0.000000000000
 55       0.000000000000
 56       0.000000000000
 57      -0.000000000000
 Sym=     1a
 Ene= 7.25022360556336E-01
 Spin= Alpha
 Occup= 0.009867
  1       0.038481692891
  2       0.005616981171
  3       0.048102008499
  4       0.059406790198
  5      -0.335106722094
  6      -0.164655846527
  7       0.457786459454
  8       0.000000000000
  9      -0.000000000000
 10       0.000000000000
 11       0.000000000000
 12      -0.000000000000
 13       0.000000000000
 14      -0.000000000000
 15       0.000000000000
 16      -0.000000000000
 17       0.000000000000
 18      -0.000000000000
 19       0.000000000000
 20       0.052420154411
 21      -0.007934994734
 22       0.062066697415
 23       0.105289965221
 24       0.027369195495
 25       0.193492731079
 26      -0.029289570383
 27       0.229099950714
 28       0.388645229204
 29       0.101024890967
 30       0.175364241604
 31      -0.026545406995
 32       0.207635392215
 33       0.352232745345
 34       0.091559787744
 35       0.000000000000
 36       0.000000000000
 37      -0.000000000000
 38       0.000000000000
 39      -0.000000000000
 40      -0.000000000000
 41       0.000000000000
 42       0.000000000000
 43       0.000000000000
 44       0.000000000000
 45       0.000000000000
 46       0.000000000000
 47      -0.000000000000
 48      -0.000000000000
 49      -0.000265922063
 50       0.000153032992
 51      -0.001197008029
 52      -0.000541998278
 53      -0.000140887660
 54      -0.000445311005
 55       0.001110175815
 56       0.001284397890
 57       0.000716123810
 Sym=     1a
 Ene= 7.95997026421162E-01
 Spin= Alpha
 Occup= 0.006615
  1       0.000000000000
  2      -0.000000000000
  3       0.000000000000
  4      -0.000000000000
  5      -0.000000000000
  6       0.000000000000
  7      -0.000000000000
  8      -0.000000000000
  9       0.000000000000
 10      -0.000000000000
 11       0.000000000000
 12       0.000000000000
 13      -0.000000000000
 14       0.000000000000
 15      -0.000000000000
 16       0.000000000000
 17       0.000000000000
 18      -0.000000000000
 19       0.000000000000
 20      -0.001777344250
 21      -0.040797755913
 22      -0.001916123404
 23      -0.036607786193
 24       0.136752235518
 25      -0.006742706033
 26      -0.154774335324
 27      -0.007269192132
 28      -0.138878858627
 29       0.518796582876
 30      -0.005453434051
 31      -0.125179953909
 32      -0.005879250808
 33      -0.112323849335
 34       0.419597552764
 35      -0.000000000000
 36       0.000000000000
 37      -0.000000000000
 38       0.000000000000
 39      -0.000000000000
 40       0.000000000000
 41       0.000000000000
 42       0.000000000000
 43      -0.000000000000
 44      -0.000000000000
 45       0.000000000000
 46      -0.000000000000
 47       0.000000000000
 48       0.000000000000
 49       0.000057985109
 50       0.000725516498
 51       0.000061674933
 52       0.000240422209
 53      -0.000635138449
 54      -0.002025473509
 55      -0.000761252711
 56      -0.001749289005
 57       0.003084639810
 Sym=     1a
 Ene= 7.95997026421162E-01
 Spin= Alpha
 Occup= 0.006615
  1      -0.000000000000
  2       0.000000000000
  3      -0.000000000000
  4       0.000000000000
  5       0.000000000000
  6      -0.000000000000
  7       0.000000000000
  8       0.000000000000
  9      -0.000000000000
 10       0.000000000000
 11       0.000000000000
 12      -0.000000000000
 13      -0.000000000000
 14       0.000000000000
 15       0.000000000000
 16      -0.000000000000
 17      -0.000000000000
 18       0.000000000000
 19      -0.000000000000
 20       0.067767486048
 21       0.014766964369
 22      -0.123925381895
 23       0.036933087389
 24       0.013436616919
 25       0.257089326975
 26       0.056021392449
 27      -0.470135383274
 28       0.140112952889
 29       0.050974456957
 30       0.207931308727
 31       0.045309548964
 32      -0.380240855088
 33       0.113321972586
 34       0.041227637380
 35      -0.000000000000
 36      -0.000000000000
 37       0.000000000000
 38       0.000000000000
 39       0.000000000000
 40       0.000000000000
 41      -0.000000000000
 42       0.000000000000
 43      -0.000000000000
 44       0.000000000000
 45       0.000000000000
 46      -0.000000000000
 47      -0.000000000000
 48      -0.000000000000
 49      -0.002210885735
 50      -0.000130138321
 51       0.001168382370
 52      -0.002685745611
 53      -0.000716432739
 54       0.000621870726
 55      -0.001702746487
 56       0.000810707365
 57       0.000558495918
 Sym=     1a
 Ene= 7.03232022957017E-01
 Spin= Alpha
 Occup= 0.002278
  1      -0.166907846234
  2      -0.019029299499
  3      -0.259157370211
  4      -0.051243423283
  5       1.624861548099
  6      -0.774560816532
  7      -0.595752249366
  8      -0.000000000000
  9       0.000000000001
 10      -0.000000000000
 11      -0.000000000000
 12       0.000000000001
 13      -0.000000000000
 14       0.000000000000
 15      -0.000000000002
 16       0.000000000000
 17       0.000000000000
 18      -0.000000000000
 19       0.000000000000
 20       0.007490689669
 21      -0.001133887982
 22       0.008869152988
 23       0.015045633948
 24       0.003910979513
 25       0.068909986711
 26      -0.010431109709
 27       0.081591047225
 28       0.138411078444
 29       0.035978736024
 30       0.062422628382
 31      -0.009449098978
 32       0.073909862174
 33       0.125380713682
 34       0.032591607917
 35       0.000000000000
 36       0.000000000000
 37      -0.000000000000
 38       0.000000000000
 39       0.000000000000
 40      -0.000000000000
 41       0.000000000000
 42       0.000000000000
 43       0.000000000000
 44      -0.000000000000
 45       0.000000000000
 46       0.000000000000
 47      -0.000000000000
 48       0.000000000000
 49      -0.000130387207
 50       0.000075035310
 51      -0.000586918333
 52      -0.000265753210
 53      -0.000069080197
 54      -0.000218345397
 55       0.000544342664
 56       0.000629767429
 57       0.000351130638
 Sym=     1a
 Ene= 1.35121943243536E-01
 Spin= Alpha
 Occup= 0.000000
  1      -0.000000000000
  2       0.000000000000
  3      -0.000000000000
  4       0.000000000000
  5       0.000000000000
  6       0.000000000000
  7      -0.000000000000
  8      -0.009327243907
  9       0.028189807984
 10       0.101344597840
 11       0.009955456371
 12      -0.030088459816
 13      -0.108170401920
 14      -0.083588910538
 15       0.252631469827
 16       0.908230191776
 17       0.136718764074
 18      -0.413206274596
 19      -1.485509363802
 20      -0.000000000000
 21       0.000000000000
 22      -0.000000000000
 23      -0.000000000000
 24      -0.000000000000
 25       0.000000000000
 26      -0.000000000000
 27      -0.000000000000
 28       0.000000000000
 29       0.000000000000
 30      -0.000000000000
 31      -0.000000000000
 32       0.000000000000
 33      -0.000000000000
 34      -0.000000000000
 35       0.000310391551
 36      -0.000080721514
 37       0.000575420646
 38       0.000488541904
 39       0.000107057628
 40       0.000116648584
 41      -0.000180455980
 42      -0.000659009330
 43       0.000171384275
 44      -0.001221707139
 45      -0.001037250116
 46      -0.000227299922
 47      -0.000247663007
 48       0.000383135990
 49       0.000000000000
 50      -0.000000000000
 51       0.000000000000
 52      -0.000000000000
 53      -0.000000000000
 54      -0.000000000000
 55       0.000000000000
 56      -0.000000000000
 57      -0.000000000000
 Sym=     1a
 Ene= 1.35121943243532E-01
 Spin= Alpha
 Occup= 0.000000
  1       0.000000000000
  2       0.000000000000
  3       0.000000000000
  4       0.000000000000
  5      -0.000000000000
  6      -0.000000000000
  7       0.000000000000
  8       0.104401830238
  9       0.014929193009
 10       0.005455942028
 11      -0.111433546324
 12      -0.015934710311
 13      -0.005823412936
 14       0.935628502358
 15       0.133792467665
 16       0.048895070682
 17      -1.530322283798
 18      -0.218832147756
 19      -0.079973211636
 20       0.000000000000
 21       0.000000000000
 22      -0.000000000000
 23      -0.000000000000
 24      -0.000000000000
 25      -0.000000000000
 26       0.000000000000
 27      -0.000000000000
 28       0.000000000000
 29      -0.000000000000
 30      -0.000000000000
 31       0.000000000000
 32      -0.000000000000
 33      -0.000000000000
 34      -0.000000000000
 35       0.000016710099
 36       0.000126821612
 37       0.000047747334
 38      -0.000064120736
 39       0.000353617836
 40      -0.000704034327
 41      -0.000294634427
 42      -0.000035478129
 43      -0.000269261922
 44      -0.000101374984
 45       0.000136138252
 46      -0.000750785426
 47       0.001494773900
 48       0.000625554514
 49      -0.000000000000
 50      -0.000000000000
 51       0.000000000000
 52       0.000000000000
 53       0.000000000000
 54      -0.000000000000
 55      -0.000000000000
 56       0.000000000000
 57       0.000000000000
 Sym=     1a
 Ene= 1.57307243002589E-01
 Spin= Alpha
 Occup= 0.000000
  1      -0.000000000000
  2       0.000000000000
  3      -0.000000000000
  4       0.000000000000
  5      -0.000000000000
  6       0.000000000002
  7      -0.000000000002
  8       0.018485733942
  9      -0.144593474047
 10       0.041921161157
 11      -0.012712944248
 12       0.099439317904
 13      -0.028829874229
 14       0.133199906453
 15      -1.041875712213
 16       0.302065082290
 17      -0.192757201222
 18       1.507726631771
 19      -0.437126582143
 20       0.000000000000
 21      -0.000000000000
 22       0.000000000000
 23       0.000000000000
 24       0.000000000000
 25       0.000000000000
 26      -0.000000000000
 27       0.000000000000
 28       0.000000000000
 29       0.000000000000
 30       0.000000000000
 31      -0.000000000000
 32       0.000000000000
 33       0.000000000000
 34       0.000000000000
 35       0.000448629703
 36       0.000057199377
 37      -0.000447407536
 38       0.000593260094
 39       0.000154212716
 40      -0.000323950464
 41       0.000807619768
 42       0.000327570527
 43       0.000041764578
 44      -0.000326678151
 45       0.000433173550
 46       0.000112599634
 47      -0.000236534994
 48       0.000589689962
 49       0.000000000000
 50      -0.000000000000
 51       0.000000000000
 52       0.000000000000
 53       0.000000000000
 54       0.000000000000
 55      -0.000000000000
 56      -0.000000000000
 57      -0.000000000000
 Sym=     1a
 Ene= 4.11575146386984E-01
 Spin= Alpha
 Occup= 0.000000
  1      -0.000000000000
  2      -0.000000000000
  3      -0.000000000000
  4      -0.000000000000
  5       0.000000000000
  6      -0.000000000000
  7       0.000000000000
  8       0.000000000000
  9      -0.000000000000
 10       0.000000000000
 11      -0.000000000000
 12       0.000000000000
 13       0.000000000000
 14       0.000000000000
 15       0.000000000000
 16      -0.000000000000
 17      -0.000000000000
 18      -0.000000000000
 19       0.000000000000
 20       0.016060268264
 21       0.054356917975
 22       0.012325916519
 23      -0.014472656999
 24       0.012723674568
 25      -0.048543215389
 26      -0.164297353798
 27      -0.037255892030
 28       0.043744556091
 29      -0.038458141853
 30       0.289213735078
 31       0.978860814531
 32       0.221965430213
 33      -0.260623989472
 34       0.229128267676
 35      -0.000000000000
 36      -0.000000000000
 37      -0.000000000000
 38      -0.000000000000
 39       0.000000000000
 40       0.000000000000
 41      -0.000000000000
 42       0.000000000000
 43       0.000000000000
 44      -0.000000000000
 45       0.000000000000
 46      -0.000000000000
 47      -0.000000000000
 48      -0.000000000000
 49       0.000154121484
 50       0.000236314803
 51       0.000451153452
 52      -0.000105504152
 53       0.001148603327
 54      -0.001195400300
 55      -0.000453258374
 56       0.000671791464
 57      -0.000338601156
 Sym=     1a
 Ene= 4.11575146386983E-01
 Spin= Alpha
 Occup= 0.000000
  1      -0.000000000000
  2      -0.000000000000
  3       0.000000000000
  4      -0.000000000000
  5       0.000000000000
  6      -0.000000000000
  7       0.000000000000
  8       0.000000000000
  9      -0.000000000000
 10      -0.000000000000
 11      -0.000000000000
 12      -0.000000000000
 13       0.000000000000
 14       0.000000000000
 15       0.000000000000
 16      -0.000000000000
 17      -0.000000000000
 18      -0.000000000000
 19      -0.000000000000
 20       0.046176529244
 21      -0.021085210174
 22       0.012763116649
 23      -0.028674407539
 24      -0.013187415448
 25      -0.139571591713
 26       0.063731432261
 27      -0.038577358133
 28       0.086670279623
 29       0.039859829111
 30       0.831548158212
 31      -0.379703021700
 32       0.229838541712
 33      -0.516369488287
 34      -0.237479325678
 35      -0.000000000000
 36       0.000000000000
 37       0.000000000000
 38      -0.000000000000
 39      -0.000000000000
 40      -0.000000000000
 41       0.000000000000
 42       0.000000000000
 43      -0.000000000000
 44      -0.000000000000
 45       0.000000000000
 46       0.000000000000
 47       0.000000000000
 48      -0.000000000000
 49       0.000443130531
 50      -0.000252849823
 51       0.001177966274
 52       0.000619560362
 53      -0.000247975188
 54       0.000386543113
 55       0.000230487845
 56       0.000953897218
 57       0.000779890199
 Sym=     1a
 Ene= 6.25717649182333E-01
 Spin= Alpha
 Occup= 0.000000
  1       0.000000000000
  2       0.000000000000
  3      -0.000000000000
  4       0.000000000000
  5      -0.000000000000
  6       0.000000000000
  7      -0.000000000000
  8       0.042685692659
  9       0.051212899277
 10       0.157819451618
 11       0.348637968351
 12       0.418284442516
 13       1.288999886154
 14      -0.632933569033
 15      -0.759373014720
 16      -2.340110293452
 17       0.276749330193
 18       0.332034803450
 19       1.023209998612
 20      -0.000000000000
 21      -0.000000000000
 22       0.000000000000
 23      -0.000000000000
 24       0.000000000000
 25       0.000000000000
 26       0.000000000000
 27      -0.000000000000
 28       0.000000000000
 29      -0.000000000000
 30      -0.000000000000
 31      -0.000000000000
 32       0.000000000000
 33      -0.000000000000
 34       0.000000000000
 35       0.001775678556
 36      -0.000199001706
 37       0.003325445342
 38       0.002613680168
 39       0.001309361719
 40      -0.000755761160
 41      -0.001603169786
 42      -0.005543278429
 43       0.000621239617
 44      -0.010381309936
 45      -0.008159335398
 46      -0.004087539689
 47       0.002359320340
 48       0.005004743940
 49       0.000000000000
 50      -0.000000000000
 51       0.000000000000
 52       0.000000000000
 53      -0.000000000000
 54      -0.000000000000
 55       0.000000000000
 56      -0.000000000000
 57      -0.000000000000
 Sym=     1a
 Ene= 6.25717649182317E-01
 Spin= Alpha
 Occup= 0.000000
  1      -0.000000000000
  2       0.000000000000
  3      -0.000000000000
  4       0.000000000000
  5      -0.000000000000
  6       0.000000000000
  7      -0.000000000000
  8      -0.164601843721
  9      -0.007436613039
 10       0.046933341555
 11      -1.344395482568
 12      -0.060738985357
 13       0.383330896798
 14       2.440678033429
 15       0.110268376571
 16      -0.695916723524
 17      -1.067183104225
 18      -0.048214695587
 19       0.304288627636
 20      -0.000000000000
 21       0.000000000000
 22       0.000000000000
 23       0.000000000000
 24      -0.000000000000
 25       0.000000000000
 26      -0.000000000000
 27      -0.000000000000
 28      -0.000000000000
 29       0.000000000000
 30      -0.000000000000
 31       0.000000000000
 32       0.000000000000
 33       0.000000000000
 34      -0.000000000000
 35       0.000528062462
 36      -0.000873560366
 37       0.000884826430
 38       0.001338674684
 39      -0.001770341128
 40       0.004185383093
 41       0.001292222279
 42      -0.001648495019
 43       0.002727063587
 44      -0.002762233766
 45      -0.004179048328
 46       0.005526616152
 47      -0.013065846711
 48      -0.004034034122
 49       0.000000000000
 50       0.000000000000
 51       0.000000000000
 52       0.000000000000
 53      -0.000000000000
 54       0.000000000000
 55      -0.000000000000
 56      -0.000000000000
 57      -0.000000000000
 Sym=     1a
 Ene= 6.54206116506823E-01
 Spin= Alpha
 Occup= 0.000000
  1      -0.000000000000
  2      -0.000000000000
  3       0.000000000001
  4      -0.000000000004
  5       0.000000000017
  6      -0.000000000029
  7       0.000000000018
  8      -0.027304639101
  9       0.213574026196
 10      -0.061920299170
 11      -0.174309456560
 12       1.363430305889
 13      -0.395291571459
 14       0.299168368273
 15      -2.340063631177
 16       0.678441300657
 17      -0.128456632340
 18       1.004774319078
 19      -0.291308487009
 20      -0.000000000000
 21       0.000000000000
 22      -0.000000000000
 23      -0.000000000000
 24      -0.000000000000
 25       0.000000000000
 26      -0.000000000000
 27       0.000000000000
 28       0.000000000000
 29       0.000000000000
 30      -0.000000000001
 31       0.000000000000
 32      -0.000000000001
 33      -0.000000000001
 34      -0.000000000001
 35      -0.002313587931
 36      -0.000294977769
 37       0.002307285201
 38      -0.003059448322
 39      -0.000795276540
 40       0.001670615830
 41      -0.004164903336
 42       0.004569467480
 43       0.000582597836
 44      -0.004557019231
 45       0.006042584087
 46       0.001570716306
 47      -0.003299561087
 48       0.008225920485
 49      -0.000000000000
 50       0.000000000000
 51      -0.000000000000
 52      -0.000000000000
 53      -0.000000000000
 54      -0.000000000000
 55       0.000000000000
 56       0.000000000000
 57       0.000000000000
 Sym=     1a
 Ene= 7.49957736530181E-01
 Spin= Alpha
 Occup= 0.000000
  1      -0.049664366369
  2      -0.061143888682
  3       0.097810168506
  4      -0.628400033772
  5       2.895943630918
  6      -4.440291915475
  7       2.505669625495
  8       0.000000000000
  9      -0.000000000001
 10       0.000000000000
 11       0.000000000001
 12      -0.000000000010
 13       0.000000000003
 14      -0.000000000002
 15       0.000000000015
 16      -0.000000000004
 17       0.000000000001
 18      -0.000000000006
 19       0.000000000002
 20      -0.003478920569
 21       0.000526614557
 22      -0.004119123889
 23      -0.006987683075
 24      -0.001816386431
 25       0.028912367965
 26      -0.004376551159
 27       0.034232924611
 28       0.058072744191
 29       0.015095496379
 30      -0.075053935707
 31       0.011361137548
 32      -0.088865627538
 33      -0.150751678799
 34      -0.039186565972
 35       0.000000000000
 36       0.000000000000
 37      -0.000000000000
 38       0.000000000000
 39       0.000000000000
 40      -0.000000000000
 41       0.000000000000
 42      -0.000000000000
 43      -0.000000000000
 44       0.000000000000
 45      -0.000000000000
 46      -0.000000000000
 47       0.000000000000
 48      -0.000000000000
 49      -0.000039318270
 50       0.000022626902
 51      -0.000176985258
 52      -0.000080137896
 53      -0.000020831138
 54      -0.000065842067
 55       0.000164146562
 56       0.000189906406
 57       0.000105883465
 Sym=     1a
 Ene= 1.01515803762848E+00
 Spin= Alpha
 Occup= 0.000000
  1      -0.000000000000
  2      -0.000000000000
  3       0.000000000000
  4      -0.000000000000
  5       0.000000000000
  6      -0.000000000000
  7       0.000000000000
  8      -0.000000000000
  9      -0.000000000000
 10      -0.000000000000
 11       0.000000000000
 12      -0.000000000000
 13       0.000000000000
 14      -0.000000000000
 15       0.000000000000
 16      -0.000000000000
 17       0.000000000000
 18      -0.000000000000
 19       0.000000000000
 20       0.038522336584
 21       0.017778889344
 22      -0.069245427621
 23       0.029271135369
 24      -0.024202145811
 25      -0.512971784152
 26      -0.236747544308
 27       0.922087124027
 28      -0.389780783464
 29       0.322281019744
 30       0.547711903702
 31       0.252780858901
 32      -0.984533866547
 33       0.416178007316
 34      -0.344106939806
 35       0.000000000000
 36      -0.000000000000
 37       0.000000000000
 38       0.000000000000
 39       0.000000000000
 40      -0.000000000000
 41      -0.000000000000
 42      -0.000000000000
 43       0.000000000000
 44      -0.000000000000
 45      -0.000000000000
 46      -0.000000000000
 47       0.000000000000
 48       0.000000000000
 49      -0.001694348282
 50      -0.000325816548
 51       0.000866504998
 52      -0.002111484731
 53      -0.000344311825
 54       0.001105628660
 55      -0.001052605340
 56       0.001162325626